 Gaussian 16, Revision A.03,
 Gaussian 16:  ES64L-G16RevA.03 25-Dec-2016

 -------------------------------------------------------------------
 #p b3lyp 6-31g* opt freq=noraman scrf=(pcm,solvent=tetrahydrofuran)
 -------------------------------------------------------------------

 -----
 title
 -----
 Symbolic Z-matrix:
 Charge =  1 Multiplicity = 1

 SCF Done:  E(RB3LYP) =  -768.335284434     A.U. after   14 cycles
 Optimization completed.
    -- Stationary point found.
 Normal termination of Gaussian 16 at Fri May 24 08:32:52 2019.

 --------------------------------------------------------------------
 #P Geom=AllCheck Guess=TCheck SCRF=Check GenChk RB3LYP/6-31G(d) Freq
 --------------------------------------------------------------------

 Structure from the checkpoint file:  "/scratch/Gau-63566.chk"
 -----
 title
 -----
 Charge =  1 Multiplicity = 1

                         Standard orientation:
 ---------------------------------------------------------------------
 Center     Atomic      Atomic             Coordinates (Angstroms)
 Number     Number       Type             X           Y           Z
 ---------------------------------------------------------------------
      1          6           0       -1.064033    0.540572   -0.275109
      2          6           0       -1.332216   -0.937112    0.107315
      3          6           0       -0.429691   -1.852345   -0.654050
      4          6           0        1.270948   -0.142609   -1.054737
      5          6           0        0.445830    0.801728   -0.163856
      6          1           0       -0.735554   -2.879000   -0.863612
      7          1           0       -1.087838   -1.045674    1.178555
      8          1           0       -1.389767    0.708741   -1.310354
      9          1           0        1.246994    0.204860   -2.088643
     10          1           0        0.752213    0.670466    0.881165
     11          8           0        0.666383   -1.526035   -1.169964
     12          8           0       -2.655748   -1.308955   -0.177853
     13          8           0       -1.731855    1.395172    0.614534
     14          8           0        0.786197    2.086641   -0.637446
     15          6           0        2.696603   -0.368907   -0.593164
     16          1           0        3.209132    0.604253   -0.643090
     17          1           0        3.207232   -1.057126   -1.282801
     18          8           0        2.652326   -0.881854    0.717500
     19          6           0       -3.278967   -2.135386    0.816992
     20          1           0       -4.303833   -2.291816    0.479546
     21          1           0       -2.774489   -3.104945    0.908426
     22          1           0       -3.277932   -1.629828    1.789949
     23          6           0       -2.981002    1.912200    0.142034
     24          1           0       -3.357778    2.561768    0.934069
     25          1           0       -3.698160    1.107247   -0.046804
     26          1           0       -2.838541    2.500449   -0.773240
     27          6           0        0.965163    3.081805    0.377164
     28          1           0        1.766759    2.794887    1.070180
     29          1           0        1.251580    3.995505   -0.147078
     30          1           0        0.039277    3.247528    0.934669
     31          6           0        3.945501   -1.081790    1.279261
     32          1           0        4.527500   -1.803461    0.689836
     33          1           0        3.793161   -1.475821    2.285713
     34          1           0        4.502809   -0.136724    1.338266
 ---------------------------------------------------------------------

 SCF Done:  E(RB3LYP) =  -768.335284434     A.U. after    1 cycles

 The electronic state is 1-A.
 Alpha  occ. eigenvalues --  -19.32814 -19.21209 -19.18985 -19.18940 -19.18639
 Alpha  occ. eigenvalues --  -10.39405 -10.31943 -10.31470 -10.29199 -10.29059
 Alpha  occ. eigenvalues --  -10.27769 -10.26143 -10.24822 -10.24709 -10.24621
 Alpha  occ. eigenvalues --   -1.21414  -1.09765  -1.07935  -1.06910  -1.06075
 Alpha  occ. eigenvalues --   -0.87154  -0.85728  -0.77237  -0.74772  -0.73334
 Alpha  occ. eigenvalues --   -0.71088  -0.68861  -0.67251  -0.65715  -0.62547
 Alpha  occ. eigenvalues --   -0.60177  -0.58453  -0.55800  -0.54977  -0.53440
 Alpha  occ. eigenvalues --   -0.51837  -0.51412  -0.50576  -0.50254  -0.48964
 Alpha  occ. eigenvalues --   -0.48632  -0.47743  -0.46133  -0.45813  -0.45249
 Alpha  occ. eigenvalues --   -0.43726  -0.43143  -0.42288  -0.40988  -0.40134
 Alpha  occ. eigenvalues --   -0.39637  -0.37328  -0.36199  -0.35475  -0.35067
 Alpha  occ. eigenvalues --   -0.32343  -0.30529  -0.29136  -0.27985
 Alpha virt. eigenvalues --   -0.14916   0.00179   0.05011   0.05736   0.06088
 Alpha virt. eigenvalues --    0.07088   0.08486   0.09354   0.10129   0.10800
 Alpha virt. eigenvalues --    0.11297   0.11982   0.12133   0.12673   0.13514

 Mulliken charges:
               1
     1  C    0.128361
     2  C    0.034784
     3  C    0.301566
     4  C    0.056707
     5  C    0.096697
     6  H    0.274673
     7  H    0.235734
     8  H    0.178707
     9  H    0.242948
    10  H    0.187564
    11  O   -0.309186
    12  O   -0.471728
    13  O   -0.488058
    14  O   -0.493837
    15  C   -0.028483
    16  H    0.184124
    17  H    0.178558
    18  O   -0.485891
    19  C   -0.234344
    20  H    0.196782
    21  H    0.171578
    22  H    0.180844
    23  C   -0.225243
    24  H    0.179852
    25  H    0.169809
    26  H    0.164234
    27  C   -0.224044
    28  H    0.160463
    29  H    0.178577
    30  H    0.174000
    31  C   -0.211138
    32  H    0.158231
    33  H    0.178260
    34  H    0.158899
 Sum of Mulliken charges =   1.00000

 Dipole moment (field-independent basis, Debye):
    X=              0.0944    Y=             -4.2251    Z=             -0.6726  Tot=              4.2793
 Quadrupole moment (field-independent basis, Debye-Ang):
   XX=            -56.9464   YY=            -66.6099   ZZ=            -81.9320
   XY=              4.2133   XZ=             -2.2919   YZ=              1.0059

  Exact polarizability: 167.089   3.828 152.288  -8.176   1.426 120.915
 Approx polarizability: 175.900   2.500 166.245 -10.288   1.837 149.949

                      1                      2                      3
                      A                      A                      A
 Frequencies --     43.0198                53.7101                70.3665
 Red. masses --      3.7427                 3.5286                 3.1484
 Frc consts  --      0.0041                 0.0060                 0.0092
 IR Inten    --      0.8893                 0.3453                 4.3127

                      4                      5                      6
                      A                      A                      A
 Frequencies --     74.5152                80.7122                95.8646
 Red. masses --      2.9252                 2.4666                 2.4573
 Frc consts  --      0.0096                 0.0095                 0.0133
 IR Inten    --      2.2563                 3.1052                 5.7402

                      7                      8                      9
                      A                      A                      A
 Frequencies --    110.5907               141.0883               150.0700
 Red. masses --      2.0754                 2.6158                 1.2043
 Frc consts  --      0.0150                 0.0307                 0.0160
 IR Inten    --      7.8224                 4.6291                 0.3383

                     10                     11                     12
                      A                      A                      A
 Frequencies --    162.8799               175.9778               189.0856
 Red. masses --      1.5805                 2.1024                 1.3839
 Frc consts  --      0.0247                 0.0384                 0.0292
 IR Inten    --      3.9500                 2.0697                 2.4436

                     13                     14                     15
                      A                      A                      A
 Frequencies --    223.0503               239.2349               260.5466
 Red. masses --      1.5941                 3.5125                 3.1863
 Frc consts  --      0.0467                 0.1184                 0.1274
 IR Inten    --     10.0209                 6.2308                16.8578

                     16                     17                     18
                      A                      A                      A
 Frequencies --    280.6773               289.5667               310.4953
 Red. masses --      3.7031                 2.8873                 3.8317
 Frc consts  --      0.1719                 0.1426                 0.2176
 IR Inten    --      7.7236                 2.3096                 1.3645

                     19                     20                     21
                      A                      A                      A
 Frequencies --    339.0765               362.1114               392.8507
 Red. masses --      4.0125                 4.4910                 3.9462
 Frc consts  --      0.2718                 0.3470                 0.3588
 IR Inten    --      1.7919                 0.3483                 6.9285

                     22                     23                     24
                      A                      A                      A
 Frequencies --    425.9345               472.4265               516.4322
 Red. masses --      4.9603                 3.5991                 3.3248
 Frc consts  --      0.5302                 0.4733                 0.5224
 IR Inten    --      2.8664                22.0737                19.7949

                     25                     26                     27
                      A                      A                      A
 Frequencies --    522.3160               579.6805               661.9244
 Red. masses --      3.5355                 3.0901                 3.9346
 Frc consts  --      0.5683                 0.6118                 1.0157
 IR Inten    --     34.7131                15.1757                21.6482

                     28                     29                     30
                      A                      A                      A
 Frequencies --    721.4844               751.1170               850.3415
 Red. masses --      4.8696                 4.2950                 1.9057
 Frc consts  --      1.4935                 1.4277                 0.8119
 IR Inten    --     41.1808                69.1313                16.9241

                     31                     32                     33
                      A                      A                      A
 Frequencies --    920.6117               950.4148               981.2111
 Red. masses --      3.0180                 4.5782                 4.6346
 Frc consts  --      1.5070                 2.4365                 2.6290
 IR Inten    --      1.7472                 4.4218                12.5253

                     34                     35                     36
                      A                      A                      A
 Frequencies --    994.7082              1036.6791              1052.5486
 Red. masses --      2.7250                 3.2123                 3.7251
 Frc consts  --      1.5886                 2.0341                 2.4315
 IR Inten    --     36.3743                27.8949               164.3089

                     37                     38                     39
                      A                      A                      A
 Frequencies --   1064.2708              1082.8013              1109.3028
 Red. masses --      2.5937                 3.5339                 3.1051
 Frc consts  --      1.7309                 2.4412                 2.2512
 IR Inten    --     10.9909               130.6168                19.8237

                     40                     41                     42
                      A                      A                      A
 Frequencies --   1135.2055              1139.9291              1156.6299
 Red. masses --      2.5419                 4.5624                 3.2645
 Frc consts  --      1.9300                 3.4930                 2.5731
 IR Inten    --     93.7993               219.0917                60.2618

                     43                     44                     45
                      A                      A                      A
 Frequencies --   1166.2062              1175.7879              1183.3102
 Red. masses --      2.6296                 2.3535                 1.3001
 Frc consts  --      2.1072                 1.9170                 1.0726
 IR Inten    --    180.7120               151.1808                20.8180

                     46                     47                     48
                      A                      A                      A
 Frequencies --   1185.2618              1189.8554              1192.6349
 Red. masses --      1.4899                 1.2882                 1.3346
 Frc consts  --      1.2332                 1.0746                 1.1185
 IR Inten    --     43.4463                 7.6142                29.6738

                     49                     50                     51
                      A                      A                      A
 Frequencies --   1213.2660              1221.5857              1229.2198
 Red. masses --      1.4131                 1.5486                 1.7431
 Frc consts  --      1.2255                 1.3615                 1.5518
 IR Inten    --     33.2372                24.2406                10.1299

                     52                     53                     54
                      A                      A                      A
 Frequencies --   1238.8885              1252.9908              1274.6823
 Red. masses --      1.7181                 1.6086                 1.2914
 Frc consts  --      1.5537                 1.4880                 1.2363
 IR Inten    --     32.5957                 8.1284                42.9799

                     55                     56                     57
                      A                      A                      A
 Frequencies --   1289.5903              1321.8235              1329.7039
 Red. masses --      1.2316                 1.3091                 1.2368
 Frc consts  --      1.2067                 1.3476                 1.2884
 IR Inten    --     20.2998                16.9211                36.0680

                     58                     59                     60
                      A                      A                      A
 Frequencies --   1357.7180              1396.1109              1417.0352
 Red. masses --      1.2254                 1.4082                 1.3646
 Frc consts  --      1.3309                 1.6172                 1.6144
 IR Inten    --      5.3313                 2.3181                12.8046

                     61                     62                     63
                      A                      A                      A
 Frequencies --   1426.1158              1430.1372              1448.0806
 Red. masses --      1.4142                 1.3953                 1.2278
 Frc consts  --      1.6946                 1.6814                 1.5169
 IR Inten    --     31.8092                50.2620                30.2977

                     64                     65                     66
                      A                      A                      A
 Frequencies --   1496.6109              1497.6944              1498.8056
 Red. masses --      1.1577                 1.1295                 1.1409
 Frc consts  --      1.5278                 1.4928                 1.5101
 IR Inten    --      0.9195                 6.5003                 4.4820

                     67                     68                     69
                      A                      A                      A
 Frequencies --   1499.8826              1507.5958              1509.1535
 Red. masses --      1.1370                 1.0608                 1.0505
 Frc consts  --      1.5071                 1.4205                 1.4096
 IR Inten    --      0.5241                 6.0539                 5.9790

                     70                     71                     72
                      A                      A                      A
 Frequencies --   1509.2088              1517.9210              1521.8121
 Red. masses --      1.0465                 1.0493                 1.0605
 Frc consts  --      1.4044                 1.4244                 1.4470
 IR Inten    --      8.2857                 8.2255                17.6460

                     73                     74                     75
                      A                      A                      A
 Frequencies --   1528.5362              1531.1401              1533.6050
 Red. masses --      1.0730                 1.0537                 1.0534
 Frc consts  --      1.4771                 1.4555                 1.4597
 IR Inten    --     11.9758                15.2412                12.0717

                     76                     77                     78
                      A                      A                      A
 Frequencies --   1540.3377              1646.6748              3000.8782
 Red. masses --      1.0969                 7.0194                 1.0784
 Frc consts  --      1.5334                11.2142                 5.7216
 IR Inten    --      8.5374               328.7301                12.4439

                     79                     80                     81
                      A                      A                      A
 Frequencies --   3018.2249              3024.3978              3042.1705
 Red. masses --      1.0508                 1.0398                 1.0345
 Frc consts  --      5.6398                 5.6039                 5.6406
 IR Inten    --     32.8870                67.0631                52.1133

                     82                     83                     84
                      A                      A                      A
 Frequencies --   3042.6048              3043.8236              3053.7706
 Red. masses --      1.0372                 1.0393                 1.0804
 Frc consts  --      5.6570                 5.6734                 5.9361
 IR Inten    --     60.9539                35.4211                16.4958

                     85                     86                     87
                      A                      A                      A
 Frequencies --   3056.6413              3075.0566              3080.0151
 Red. masses --      1.1061                 1.0843                 1.1069
 Frc consts  --      6.0890                 6.0411                 6.1870
 IR Inten    --     53.8518                17.3522                44.9866

                     88                     89                     90
                      A                      A                      A
 Frequencies --   3108.8633              3119.0504              3124.4763
 Red. masses --      1.1075                 1.1026                 1.0978
 Frc consts  --      6.3067                 6.3202                 6.3146
 IR Inten    --     38.8128                39.5354                38.1261

                     91                     92                     93
                      A                      A                      A
 Frequencies --   3158.5424              3160.1869              3166.1308
 Red. masses --      1.0875                 1.0999                 1.1042
 Frc consts  --      6.3921                 6.4716                 6.5217
 IR Inten    --      1.0433                25.0224                24.5841

                     94                     95                     96
                      A                      A                      A
 Frequencies --   3166.6610              3180.9943              3189.9606
 Red. masses --      1.1059                 1.1020                 1.0938
 Frc consts  --      6.5341                 6.5699                 6.5578
 IR Inten    --     23.4172                17.4617                 0.7211

 - Thermochemistry -
 -------------------
 Temperature   298.150 Kelvin.  Pressure   1.00000 Atm.
 Atom     1 has atomic number  6 and mass  12.00000

 Molecular mass:   219.12325 amu.
 Principal axes and moments of inertia in atomic units:
                           1         2         3
     Eigenvalues --  2415.294384109.107635644.54327
           X            1.00000   0.00275   0.00154
           Y           -0.00273   0.99995  -0.00982
           Z           -0.00157   0.00982   0.99995
 This molecule is an asymmetric top.
 Rotational symmetry number  1.
 Warning -- assumption of classical behavior for rotation
           may cause significant error
 Rotational temperatures (Kelvin)      0.03586     0.02108     0.01534
 Rotational constants (GHZ):           0.74721     0.43921     0.31973
 Zero-point vibrational energy     773163.8 (Joules/Mol)
                                  184.79058 (Kcal/Mol)
 Warning -- explicit consideration of  26 degrees of freedom as
           vibrations may cause significant error
 Vibrational temperatures:     61.90    77.28   101.24   107.21   116.13
          (Kelvin)            137.93   159.12   202.99   215.92   234.35
                              253.19   272.05   320.92   344.21   374.87
                              403.83   416.62   446.73   487.86   521.00
                              565.22   612.82   679.72   743.03   751.50
                              834.03   952.36  1038.06  1080.69  1223.45
                             1324.55  1367.43  1411.74  1431.16  1491.55
                             1514.38  1531.25  1557.91  1596.04  1633.31
                             1640.10  1664.13  1677.91  1691.70  1702.52
                             1705.33  1711.94  1715.94  1745.62  1757.59
                             1768.57  1782.48  1802.77  1833.98  1855.43
                             1901.81  1913.15  1953.45  2008.69  2038.80
                             2051.86  2057.65  2083.47  2153.29  2154.85
                             2156.45  2158.00  2169.09  2171.34  2171.41
                             2183.95  2189.55  2199.22  2202.97  2206.52
                             2216.20  2369.20  4317.59  4342.55  4351.43
                             4377.00  4377.63  4379.38  4393.69  4397.83
                             4424.32  4431.45  4472.96  4487.62  4495.42
                             4544.44  4546.80  4555.36  4556.12  4576.74
                             4589.64

 Zero-point correction=                           0.294483 (Hartree/Particle)
 Thermal correction to Energy=                    0.311944
 Thermal correction to Enthalpy=                  0.312888
 Thermal correction to Gibbs Free Energy=         0.248801
 Sum of electronic and zero-point Energies=           -768.040802
 Sum of electronic and thermal Energies=              -768.023340
 Sum of electronic and thermal Enthalpies=            -768.022396
 Sum of electronic and thermal Free Energies=         -768.086483

                     E (Thermal)             CV                S
                      KCal/Mol        Cal/Mol-Kelvin    Cal/Mol-Kelvin
 Total                  195.748             61.732            134.883
 Electronic               0.000              0.000              0.000
 Translational            0.889              2.981             42.056
 Rotational               0.889              2.981             32.394
 Vibrational            193.970             55.771             60.433
 Vibration     1          0.595              1.980              5.115
 Vibration     2          0.596              1.976              4.676
 Vibration     3          0.598              1.968              4.143
 Vibration     4          0.599              1.966              4.030
 Vibration     5          0.600              1.962              3.873
 Vibration     6          0.603              1.952              3.537
 Vibration     7          0.606              1.941              3.259
 Vibration     8          0.615              1.912              2.789
 Vibration     9          0.618              1.903              2.671
 Vibration    10          0.623              1.888              2.516
 Vibration    11          0.628              1.872              2.371
 Vibration    12          0.633              1.855              2.237
 Vibration    13          0.649              1.806              1.934
 Vibration    14          0.657              1.780              1.809
 Vibration    15          0.669              1.745              1.658
 Vibration    16          0.680              1.709              1.530
 Vibration    17          0.686              1.693              1.476
 Vibration    18          0.699              1.654              1.360
 Vibration    19          0.719              1.597              1.216
 Vibration    20          0.736              1.550              1.113
 Vibration    21          0.760              1.485              0.989
 Vibration    22          0.788              1.414              0.872
 Vibration    23          0.829              1.311              0.731
 Vibration    24          0.871              1.214              0.618
 Vibration    25          0.877              1.201              0.605
 Vibration    26          0.936              1.075              0.486

                           ! Non-Optimized Parameters !
 Normal termination of Gaussian 16 at Fri May 24 08:51:23 2019.
