 Gaussian 16, Revision A.03,
 Gaussian 16:  ES64L-G16RevA.03 25-Dec-2016

 -------------------------------------------------------------------
 #p b3lyp 6-31g* opt freq=noraman scrf=(pcm,solvent=tetrahydrofuran)
 -------------------------------------------------------------------

 -----
 title
 -----
 Symbolic Z-matrix:
 Charge =  1 Multiplicity = 1

 SCF Done:  E(RB3LYP) =  -768.321868489     A.U. after   13 cycles
 SCF Done:  E(RB3LYP) =  -768.321868781     A.U. after    6 cycles
 Optimization completed.
    -- Stationary point found.
 Normal termination of Gaussian 16 at Fri May 24 08:43:04 2019.

 --------------------------------------------------------------------
 #P Geom=AllCheck Guess=TCheck SCRF=Check GenChk RB3LYP/6-31G(d) Freq
 --------------------------------------------------------------------

 Structure from the checkpoint file:  "/scratch/Gau-60821.chk"
 -----
 title
 -----
 Charge =  1 Multiplicity = 1

                         Standard orientation:
 ---------------------------------------------------------------------
 Center     Atomic      Atomic             Coordinates (Angstroms)
 Number     Number       Type             X           Y           Z
 ---------------------------------------------------------------------
      1          6           0        1.010359    0.931717    0.215689
      2          6           0        1.466336   -0.103570   -0.832594
      3          6           0        0.468209   -1.177732   -1.133438
      4          6           0       -1.224818   -0.320687    0.398415
      5          6           0       -0.137724    0.451946    1.154875
      6          1           0        0.739463   -1.982438   -1.817192
      7          1           0        1.702080    0.440430   -1.755902
      8          1           0        1.880724    1.175611    0.836845
      9          1           0       -1.766870   -0.977094    1.078421
     10          1           0       -0.625808    1.364484    1.510904
     11          8           0       -0.640505   -1.335067   -0.567292
     12          8           0        2.557408   -0.888639   -0.375543
     13          8           0        0.568479    2.050822   -0.535548
     14          8           0        0.285387   -0.177423    2.345302
     15          6           0       -2.194862    0.538017   -0.430071
     16          1           0       -1.633052    1.127026   -1.159710
     17          1           0       -2.675142    1.235835    0.272609
     18          8           0       -3.135618   -0.226461   -1.137938
     19          6           0        3.641943   -1.032513   -1.311030
     20          1           0        4.058950   -0.049493   -1.556185
     21          1           0        4.388974   -1.644558   -0.805685
     22          1           0        3.314753   -1.535244   -2.227910
     23          6           0        0.721735    3.311475    0.122177
     24          1           0        1.775444    3.493849    0.366953
     25          1           0        0.372814    4.066325   -0.583950
     26          1           0        0.122597    3.375832    1.039065
     27          6           0        0.822215   -1.500763    2.278462
     28          1           0        0.090542   -2.221928    1.889412
     29          1           0        1.737295   -1.546497    1.678883
     30          1           0        1.055012   -1.773795    3.308983
     31          6           0       -4.240273   -0.682885   -0.360103
     32          1           0       -3.938554   -1.409106    0.406994
     33          1           0       -4.753980    0.157688    0.125893
     34          1           0       -4.925171   -1.172812   -1.054562
 ---------------------------------------------------------------------

 SCF Done:  E(RB3LYP) =  -768.321868781     A.U. after    1 cycles

 The electronic state is 1-A.
 Alpha  occ. eigenvalues --  -19.32698 -19.22728 -19.19736 -19.19029 -19.18464
 Alpha  occ. eigenvalues --  -10.39452 -10.31895 -10.31727 -10.29620 -10.29598
 Alpha  occ. eigenvalues --  -10.27958 -10.26798 -10.25508 -10.25126 -10.24821
 Alpha  occ. eigenvalues --   -1.21368  -1.10436  -1.08050  -1.06844  -1.06697
 Alpha  occ. eigenvalues --   -0.86829  -0.85432  -0.77237  -0.75590  -0.74275
 Alpha  occ. eigenvalues --   -0.71679  -0.69306  -0.68952  -0.65900  -0.61713
 Alpha  occ. eigenvalues --   -0.59304  -0.58290  -0.57252  -0.54418  -0.53683
 Alpha  occ. eigenvalues --   -0.53065  -0.51352  -0.51082  -0.50641  -0.49033
 Alpha  occ. eigenvalues --   -0.48418  -0.48007  -0.47108  -0.46319  -0.46074
 Alpha  occ. eigenvalues --   -0.44666  -0.42963  -0.42543  -0.41535  -0.40797
 Alpha  occ. eigenvalues --   -0.39832  -0.37955  -0.36734  -0.35003  -0.34686
 Alpha  occ. eigenvalues --   -0.33061  -0.31556  -0.29314  -0.28320
 Alpha virt. eigenvalues --   -0.14893   0.00659   0.02820   0.04769   0.06274
 Alpha virt. eigenvalues --    0.07246   0.07722   0.07866   0.09042   0.10321
 Alpha virt. eigenvalues --    0.11051   0.11169   0.11786   0.12484   0.13143

 Mulliken charges:
               1
     1  C    0.095034
     2  C    0.034400
     3  C    0.297346
     4  C    0.013117
     5  C    0.096429
     6  H    0.273603
     7  H    0.242917
     8  H    0.200204
     9  H    0.236810
    10  H    0.202494
    11  O   -0.301045
    12  O   -0.460469
    13  O   -0.490000
    14  O   -0.476100
    15  C   -0.051470
    16  H    0.197728
    17  H    0.180347
    18  O   -0.463487
    19  C   -0.233976
    20  H    0.187525
    21  H    0.203535
    22  H    0.180940
    23  C   -0.225817
    24  H    0.169501
    25  H    0.188831
    26  H    0.164908
    27  C   -0.264257
    28  H    0.155946
    29  H    0.180955
    30  H    0.190429
    31  C   -0.225858
    32  H    0.155356
    33  H    0.160782
    34  H    0.183345
 Sum of Mulliken charges =   1.00000

 Dipole moment (field-independent basis, Debye):
    X=              2.6031    Y=             -1.3494    Z=             -2.1405  Tot=              3.6302
 Quadrupole moment (field-independent basis, Debye-Ang):
   XX=            -59.5594   YY=            -70.3476   ZZ=            -83.1610
   XY=             -2.3270   XZ=            -12.4970   YZ=              4.1895

  Exact polarizability: 169.792  -3.072 139.062  -6.362   0.920 127.502
 Approx polarizability: 183.807  -0.964 155.553  -3.221   1.745 154.851

                      1                      2                      3
                      A                      A                      A
 Frequencies --     39.3010                59.3953                76.6430
 Red. masses --      3.6450                 2.7594                 3.2233
 Frc consts  --      0.0033                 0.0057                 0.0112
 IR Inten    --      3.5365                 2.1102                 2.0147

                      4                      5                      6
                      A                      A                      A
 Frequencies --     79.6239                95.8055               104.3954
 Red. masses --      3.6774                 2.5793                 2.4267
 Frc consts  --      0.0137                 0.0139                 0.0156
 IR Inten    --      0.8211                 3.4408                 1.6562

                      7                      8                      9
                      A                      A                      A
 Frequencies --    121.0674               137.8597               154.8369
 Red. masses --      2.3836                 2.0331                 2.7399
 Frc consts  --      0.0206                 0.0228                 0.0387
 IR Inten    --      4.5088                 7.4472                 1.4496

                     10                     11                     12
                      A                      A                      A
 Frequencies --    163.8344               188.0529               200.3807
 Red. masses --      2.1060                 1.4654                 1.8461
 Frc consts  --      0.0333                 0.0305                 0.0437
 IR Inten    --      6.0915                 6.6369                 8.1931

                     13                     14                     15
                      A                      A                      A
 Frequencies --    226.4766               242.6223               270.5432
 Red. masses --      1.2223                 1.4625                 3.5558
 Frc consts  --      0.0369                 0.0507                 0.1533
 IR Inten    --      2.8211                10.9946                 0.8576

                     16                     17                     18
                      A                      A                      A
 Frequencies --    284.4876               297.4800               320.8010
 Red. masses --      3.9192                 4.1327                 4.0557
 Frc consts  --      0.1869                 0.2155                 0.2459
 IR Inten    --     15.6542                11.0479                 1.9593

                     19                     20                     21
                      A                      A                      A
 Frequencies --    369.2136               380.6838               418.3542
 Red. masses --      4.7786                 3.8556                 3.5837
 Frc consts  --      0.3838                 0.3292                 0.3695
 IR Inten    --      2.7458                22.1108                11.6699

                     22                     23                     24
                      A                      A                      A
 Frequencies --    466.5759               493.8217               511.3416
 Red. masses --      2.6307                 3.5501                 5.2775
 Frc consts  --      0.3374                 0.5101                 0.8130
 IR Inten    --      0.2056                 3.6091                 3.9518

                     25                     26                     27
                      A                      A                      A
 Frequencies --    550.6858               580.4892               665.1955
 Red. masses --      4.6968                 4.0104                 4.5711
 Frc consts  --      0.8392                 0.7962                 1.1917
 IR Inten    --     52.2541                14.1481                10.4054

                     28                     29                     30
                      A                      A                      A
 Frequencies --    685.3382               845.3647               895.8050
 Red. masses --      3.9971                 2.7596                 3.9175
 Frc consts  --      1.1061                 1.1620                 1.8522
 IR Inten    --     57.5121                12.5230                31.0731

                     31                     32                     33
                      A                      A                      A
 Frequencies --    905.1598               924.1008               933.3958
 Red. masses --      2.5611                 3.4030                 3.9108
 Frc consts  --      1.2363                 1.7122                 2.0075
 IR Inten    --     47.1758                61.6614                34.1106

                     34                     35                     36
                      A                      A                      A
 Frequencies --    957.3885               985.9868              1008.6340
 Red. masses --      3.4037                 3.1459                 3.9532
 Frc consts  --      1.8381                 1.8019                 2.3696
 IR Inten    --     20.6992                14.8708                16.4597

                     37                     38                     39
                      A                      A                      A
 Frequencies --   1038.2789              1083.9260              1100.3190
 Red. masses --      2.9371                 2.4984                 2.3491
 Frc consts  --      1.8655                 1.7294                 1.6757
 IR Inten    --      4.3578                40.4788                14.7550

                     40                     41                     42
                      A                      A                      A
 Frequencies --   1102.9153              1129.9763              1134.0778
 Red. masses --      5.2052                 4.2864                 4.8541
 Frc consts  --      3.7305                 3.2247                 3.6783
 IR Inten    --    160.0314               250.8247               142.1140

                     43                     44                     45
                      A                      A                      A
 Frequencies --   1148.8338              1175.9968              1177.0147
 Red. masses --      1.7359                 1.5631                 2.3764
 Frc consts  --      1.3498                 1.2736                 1.9397
 IR Inten    --     46.5584                53.1848                96.2918

                     46                     47                     48
                      A                      A                      A
 Frequencies --   1187.6565              1190.2615              1194.5457
 Red. masses --      1.3177                 1.3149                 1.2799
 Frc consts  --      1.0951                 1.0976                 1.0761
 IR Inten    --      5.2304                18.7956                 6.4252

                     49                     50                     51
                      A                      A                      A
 Frequencies --   1209.8122              1226.8244              1229.4061
 Red. masses --      1.3853                 1.5669                 1.6492
 Frc consts  --      1.1946                 1.3895                 1.4686
 IR Inten    --     17.1932                55.8019                49.6132

                     52                     53                     54
                      A                      A                      A
 Frequencies --   1239.2885              1247.6410              1313.9518
 Red. masses --      1.5388                 1.7673                 1.3134
 Frc consts  --      1.3924                 1.6208                 1.3360
 IR Inten    --     43.1007                 6.7592                 6.8643

                     55                     56                     57
                      A                      A                      A
 Frequencies --   1330.0527              1332.9473              1354.8110
 Red. masses --      1.2343                 1.1796                 1.2967
 Frc consts  --      1.2864                 1.2349                 1.4023
 IR Inten    --      7.1728                11.3230                 2.0745

                     58                     59                     60
                      A                      A                      A
 Frequencies --   1357.7009              1377.5276              1394.0083
 Red. masses --      1.3085                 1.3588                 1.5007
 Frc consts  --      1.4211                 1.5191                 1.7182
 IR Inten    --     46.1000                33.9188                43.6256

                     61                     62                     63
                      A                      A                      A
 Frequencies --   1424.4987              1425.4934              1439.5139
 Red. masses --      1.2963                 1.2395                 1.3016
 Frc consts  --      1.5498                 1.4840                 1.5891
 IR Inten    --     12.2443                13.2885                48.7771

                     64                     65                     66
                      A                      A                      A
 Frequencies --   1494.7644              1496.1330              1497.8304
 Red. masses --      1.1302                 1.1051                 1.1150
 Frc consts  --      1.4879                 1.4574                 1.4738
 IR Inten    --     15.2907                 0.6036                 0.2150

                     67                     68                     69
                      A                      A                      A
 Frequencies --   1507.8223              1512.8627              1514.8342
 Red. masses --      1.0627                 1.0767                 1.1304
 Frc consts  --      1.4235                 1.4519                 1.5283
 IR Inten    --     10.7242                 9.0252                 0.8596

                     70                     71                     72
                      A                      A                      A
 Frequencies --   1517.3220              1518.3814              1523.6725
 Red. masses --      1.0592                 1.0796                 1.0462
 Frc consts  --      1.4367                 1.4664                 1.4310
 IR Inten    --     10.9457                 2.6161                14.9331

                     73                     74                     75
                      A                      A                      A
 Frequencies --   1527.3879              1528.6812              1530.5268
 Red. masses --      1.0458                 1.0740                 1.0643
 Frc consts  --      1.4374                 1.4788                 1.4689
 IR Inten    --     13.6324                15.6268                17.4988

                     76                     77                     78
                      A                      A                      A
 Frequencies --   1537.1701              1649.7513              3021.1814
 Red. masses --      1.0548                 5.8313                 1.0402
 Frc consts  --      1.4685                 9.3509                 5.5941
 IR Inten    --     15.0313               321.1742                47.3160

                     79                     80                     81
                      A                      A                      A
 Frequencies --   3029.3913              3037.1655              3038.4713
 Red. masses --      1.0643                 1.0339                 1.0387
 Frc consts  --      5.7549                 5.6191                 5.6503
 IR Inten    --     33.5775                66.2418                35.0948

                     82                     83                     84
                      A                      A                      A
 Frequencies --   3052.7920              3072.4232              3073.9516
 Red. masses --      1.0323                 1.0827                 1.0857
 Frc consts  --      5.6681                 6.0217                 6.0445
 IR Inten    --     39.3499                 4.3546                13.2640

                     85                     86                     87
                      A                      A                      A
 Frequencies --   3079.0635              3098.3793              3100.1975
 Red. masses --      1.1065                 1.0981                 1.0933
 Frc consts  --      6.1810                 6.2111                 6.1909
 IR Inten    --     65.1060                25.6412                33.7623

                     88                     89                     90
                      A                      A                      A
 Frequencies --   3115.6805              3124.6387              3138.7415
 Red. masses --      1.0983                 1.1081                 1.0939
 Frc consts  --      6.2818                 6.3744                 6.3496
 IR Inten    --     29.3537                27.3892                 4.8167

                     91                     92                     93
                      A                      A                      A
 Frequencies --   3160.3287              3166.4435              3167.3969
 Red. masses --      1.0991                 1.1025                 1.0887
 Frc consts  --      6.4675                 6.5127                 6.4352
 IR Inten    --     27.1977                16.3522                 5.8372

                     94                     95                     96
                      A                      A                      A
 Frequencies --   3169.7144              3188.2901              3205.7466
 Red. masses --      1.1013                 1.1034                 1.0937
 Frc consts  --      6.5194                 6.6087                 6.6225
 IR Inten    --     19.9355                11.8361                 0.9235

 - Thermochemistry -
 -------------------
 Temperature   298.150 Kelvin.  Pressure   1.00000 Atm.
 Atom     1 has atomic number  6 and mass  12.00000

 Molecular mass:   219.12325 amu.
 Principal axes and moments of inertia in atomic units:
                           1         2         3
     Eigenvalues --  2434.860704317.691504681.17836
           X            0.99983  -0.00268  -0.01817
           Y            0.00252   0.99996  -0.00833
           Z            0.01819   0.00828   0.99980
 This molecule is an asymmetric top.
 Rotational symmetry number  1.
 Warning -- assumption of classical behavior for rotation
           may cause significant error
 Rotational temperatures (Kelvin)      0.03557     0.02006     0.01850
 Rotational constants (GHZ):           0.74121     0.41799     0.38553
 Zero-point vibrational energy     775213.4 (Joules/Mol)
                                  185.28045 (Kcal/Mol)
 Warning -- explicit consideration of  26 degrees of freedom as
           vibrations may cause significant error
 Vibrational temperatures:     56.55    85.46   110.27   114.56   137.84
          (Kelvin)            150.20   174.19   198.35   222.78   235.72
                              270.57   288.30   325.85   349.08   389.25
                              409.31   428.01   461.56   531.22   547.72
                              601.92   671.30   710.50   735.71   792.31
                              835.19   957.07   986.05  1216.29  1288.86
                             1302.32  1329.57  1342.95  1377.47  1418.62
                             1451.20  1493.85  1559.53  1583.11  1586.85
                             1625.78  1631.68  1652.92  1692.00  1693.46
                             1708.77  1712.52  1718.68  1740.65  1765.13
                             1768.84  1783.06  1795.08  1890.48  1913.65
                             1917.81  1949.27  1953.43  1981.96  2005.67
                             2049.54  2050.97  2071.14  2150.63  2152.60
                             2155.04  2169.42  2176.67  2179.51  2183.09
                             2184.61  2192.22  2197.57  2199.43  2202.09
                             2211.64  2373.62  4346.81  4358.62  4369.80
                             4371.68  4392.29  4420.53  4422.73  4430.09
                             4457.88  4460.49  4482.77  4495.66  4515.95
                             4547.01  4555.81  4557.18  4560.51  4587.24
                             4612.35

 Zero-point correction=                           0.295263 (Hartree/Particle)
 Thermal correction to Energy=                    0.312413
 Thermal correction to Enthalpy=                  0.313357
 Thermal correction to Gibbs Free Energy=         0.250274
 Sum of electronic and zero-point Energies=           -768.026606
 Sum of electronic and thermal Energies=              -768.009456
 Sum of electronic and thermal Enthalpies=            -768.008512
 Sum of electronic and thermal Free Energies=         -768.071595

                     E (Thermal)             CV                S
                      KCal/Mol        Cal/Mol-Kelvin    Cal/Mol-Kelvin
 Total                  196.042             61.403            132.769
 Electronic               0.000              0.000              0.000
 Translational            0.889              2.981             42.056
 Rotational               0.889              2.981             32.265
 Vibrational            194.264             55.441             58.448
 Vibration     1          0.594              1.981              5.294
 Vibration     2          0.597              1.974              4.477
 Vibration     3          0.599              1.965              3.975
 Vibration     4          0.600              1.963              3.900
 Vibration     5          0.603              1.952              3.538
 Vibration     6          0.605              1.946              3.371
 Vibration     7          0.609              1.932              3.083
 Vibration     8          0.614              1.916              2.833
 Vibration     9          0.620              1.897              2.612
 Vibration    10          0.623              1.887              2.505
 Vibration    11          0.633              1.856              2.247
 Vibration    12          0.638              1.839              2.130
 Vibration    13          0.650              1.801              1.907
 Vibration    14          0.659              1.775              1.784
 Vibration    15          0.674              1.727              1.593
 Vibration    16          0.683              1.702              1.507
 Vibration    17          0.691              1.678              1.431
 Vibration    18          0.706              1.634              1.306
 Vibration    19          0.742              1.535              1.083
 Vibration    20          0.750              1.511              1.036
 Vibration    21          0.781              1.430              0.898
 Vibration    22          0.824              1.324              0.747
 Vibration    23          0.849              1.264              0.674
 Vibration    24          0.866              1.225              0.630
 Vibration    25          0.906              1.138              0.543
 Vibration    26          0.937              1.073              0.484

                           ! Non-Optimized Parameters !
 Normal termination of Gaussian 16 at Fri May 24 09:30:21 2019.
