 Gaussian 16, Revision A.03,
 Gaussian 16:  ES64L-G16RevA.03 25-Dec-2016

 -------------------------------------------------------------------
 #p b3lyp 6-31g* opt freq=noraman scrf=(pcm,solvent=tetrahydrofuran)
 -------------------------------------------------------------------

 -----
 title
 -----
 Symbolic Z-matrix:
 Charge =  1 Multiplicity = 1

 SCF Done:  E(RB3LYP) =  -768.324734480     A.U. after   14 cycles
 Optimization completed.
    -- Stationary point found.
 Normal termination of Gaussian 16 at Fri May 24 08:35:48 2019.

 --------------------------------------------------------------------
 #P Geom=AllCheck Guess=TCheck SCRF=Check GenChk RB3LYP/6-31G(d) Freq
 --------------------------------------------------------------------

 Structure from the checkpoint file:  "/scratch/Gau-2594.chk"
 -----
 title
 -----
 Charge =  1 Multiplicity = 1

                         Standard orientation:
 ---------------------------------------------------------------------
 Center     Atomic      Atomic             Coordinates (Angstroms)
 Number     Number       Type             X           Y           Z
 ---------------------------------------------------------------------
      1          6           0       -1.264417    0.283696   -0.323628
      2          6           0       -1.432815   -1.041995    0.472790
      3          6           0       -0.300594   -1.967204    0.183702
      4          6           0        1.251594   -0.163656   -0.379606
      5          6           0        0.145132    0.851291   -0.034942
      6          1           0       -0.435738   -3.047742    0.268791
      7          1           0       -1.287877   -0.812430    1.545614
      8          1           0       -1.312146    0.071664   -1.396424
      9          1           0        1.420196   -0.172247   -1.457744
     10          1           0        0.226525    1.137123    1.024467
     11          8           0        0.860224   -1.605696   -0.125071
     12          8           0       -2.666592   -1.690483    0.402904
     13          8           0       -2.310355    1.191308   -0.094209
     14          8           0        0.450776    1.940525   -0.875530
     15          6           0        2.557353    0.055948    0.356645
     16          1           0        2.432987   -0.162064    1.430001
     17          1           0        2.794800    1.127208    0.257202
     18          8           0        3.538372   -0.758708   -0.231732
     19          6           0       -3.208954   -1.887755   -0.913953
     20          1           0       -4.101868   -2.496503   -0.770349
     21          1           0       -3.485620   -0.933509   -1.371352
     22          1           0       -2.509178   -2.427415   -1.565621
     23          6           0       -2.672919    1.476407    1.261168
     24          1           0       -1.837507    1.883091    1.843070
     25          1           0       -3.456319    2.232905    1.198208
     26          1           0       -3.078448    0.588642    1.760191
     27          6           0        0.118873    3.237734   -0.368615
     28          1           0       -0.964362    3.376160   -0.310950
     29          1           0        0.569247    3.400195    0.619211
     30          1           0        0.541593    3.951485   -1.077792
     31          6           0        4.814471   -0.609342    0.380339
     32          1           0        5.179114    0.423933    0.294792
     33          1           0        5.496281   -1.277794   -0.148509
     34          1           0        4.782581   -0.889019    1.442902
 ---------------------------------------------------------------------

 SCF Done:  E(RB3LYP) =  -768.324734480     A.U. after    1 cycles

 The electronic state is 1-A.
 Alpha  occ. eigenvalues --  -19.33140 -19.21015 -19.19894 -19.19536 -19.18273
 Alpha  occ. eigenvalues --  -10.39907 -10.32300 -10.32234 -10.30118 -10.29912
 Alpha  occ. eigenvalues --  -10.27945 -10.26055 -10.25596 -10.25075 -10.24623
 Alpha  occ. eigenvalues --   -1.21801  -1.09979  -1.08383  -1.06868  -1.06655
 Alpha  occ. eigenvalues --   -0.87533  -0.86093  -0.77999  -0.75154  -0.74391
 Alpha  occ. eigenvalues --   -0.71740  -0.69057  -0.68086  -0.65442  -0.62745
 Alpha  occ. eigenvalues --   -0.60699  -0.58867  -0.55740  -0.54864  -0.54312
 Alpha  occ. eigenvalues --   -0.52784  -0.51920  -0.51116  -0.50332  -0.49374
 Alpha  occ. eigenvalues --   -0.48776  -0.47867  -0.46629  -0.45685  -0.45453
 Alpha  occ. eigenvalues --   -0.44282  -0.43392  -0.42317  -0.42055  -0.40614
 Alpha  occ. eigenvalues --   -0.40238  -0.37249  -0.36108  -0.35444  -0.35146
 Alpha  occ. eigenvalues --   -0.32795  -0.31540  -0.28981  -0.28152
 Alpha virt. eigenvalues --   -0.15387  -0.00241   0.04454   0.04688   0.06554
 Alpha virt. eigenvalues --    0.07054   0.07174   0.08730   0.09351   0.10284
 Alpha virt. eigenvalues --    0.11234   0.11579   0.11841   0.12486   0.13313

 Mulliken charges:
               1
     1  C    0.119383
     2  C    0.013462
     3  C    0.287537
     4  C    0.064005
     5  C    0.075818
     6  H    0.282679
     7  H    0.252347
     8  H    0.194595
     9  H    0.247595
    10  H    0.174705
    11  O   -0.300207
    12  O   -0.469534
    13  O   -0.474264
    14  O   -0.483977
    15  C   -0.021827
    16  H    0.166438
    17  H    0.184404
    18  O   -0.479688
    19  C   -0.243273
    20  H    0.198633
    21  H    0.187337
    22  H    0.164259
    23  C   -0.247992
    24  H    0.163628
    25  H    0.194789
    26  H    0.176407
    27  C   -0.226918
    28  H    0.176514
    29  H    0.160815
    30  H    0.184754
    31  C   -0.212564
    32  H    0.156504
    33  H    0.179444
    34  H    0.154192
 Sum of Mulliken charges =   1.00000

 Dipole moment (field-independent basis, Debye):
    X=             -0.1063    Y=             -2.4185    Z=              2.6008  Tot=              3.5531
 Quadrupole moment (field-independent basis, Debye-Ang):
   XX=            -67.2886   YY=            -67.5747   ZZ=            -82.2936
   XY=              4.9805   XZ=              5.0687   YZ=              5.1857

  Exact polarizability: 165.593   1.010 152.275  -3.998   1.828 116.410
 Approx polarizability: 175.175  -1.995 169.373  -7.514   0.091 146.887

                      1                      2                      3
                      A                      A                      A
 Frequencies --     42.9530                64.1426                69.2969
 Red. masses --      3.9485                 3.2565                 3.8056
 Frc consts  --      0.0043                 0.0079                 0.0108
 IR Inten    --      0.6158                 1.8166                 0.1504

                      4                      5                      6
                      A                      A                      A
 Frequencies --     90.0919                98.7929               102.9060
 Red. masses --      2.4928                 2.3433                 2.3942
 Frc consts  --      0.0119                 0.0135                 0.0149
 IR Inten    --      3.5681                 5.1598                 4.2230

                      7                      8                      9
                      A                      A                      A
 Frequencies --    124.6206               144.2917               170.4588
 Red. masses --      2.4632                 2.1743                 1.4502
 Frc consts  --      0.0225                 0.0267                 0.0248
 IR Inten    --      8.7354                 6.2509                 1.2977

                     10                     11                     12
                      A                      A                      A
 Frequencies --    175.5428               189.9283               220.1124
 Red. masses --      2.4601                 1.6904                 1.8773
 Frc consts  --      0.0447                 0.0359                 0.0536
 IR Inten    --      1.1392                 6.8100                 5.8278

                     13                     14                     15
                      A                      A                      A
 Frequencies --    225.1992               242.0122               248.8927
 Red. masses --      1.3448                 2.7507                 1.8621
 Frc consts  --      0.0402                 0.0949                 0.0680
 IR Inten    --      3.0336                 1.2827                11.7047

                     16                     17                     18
                      A                      A                      A
 Frequencies --    278.9530               297.7914               304.8017
 Red. masses --      3.3811                 3.1279                 4.2272
 Frc consts  --      0.1550                 0.1634                 0.2314
 IR Inten    --      7.9578                 8.7102                 4.2573

                     19                     20                     21
                      A                      A                      A
 Frequencies --    341.6437               366.4831               398.7718
 Red. masses --      3.8060                 3.9907                 4.3032
 Frc consts  --      0.2617                 0.3158                 0.4032
 IR Inten    --      2.5740                10.5050                 2.8680

                     22                     23                     24
                      A                      A                      A
 Frequencies --    416.5881               480.1904               537.9474
 Red. masses --      4.5478                 3.9447                 3.9199
 Frc consts  --      0.4650                 0.5359                 0.6683
 IR Inten    --      2.8305                15.1747                12.8009

                     25                     26                     27
                      A                      A                      A
 Frequencies --    556.2561               581.3842               612.0095
 Red. masses --      3.4435                 3.5094                 3.3393
 Frc consts  --      0.6278                 0.6989                 0.7369
 IR Inten    --     17.4771                 4.3801                41.8534

                     28                     29                     30
                      A                      A                      A
 Frequencies --    716.2435               726.9629               836.4519
 Red. masses --      4.2436                 3.8321                 2.3316
 Frc consts  --      1.2826                 1.1932                 0.9611
 IR Inten    --     55.4094                79.1197                14.4375

                     31                     32                     33
                      A                      A                      A
 Frequencies --    929.8641               948.3787               976.6544
 Red. masses --      4.5535                 3.2063                 3.2220
 Frc consts  --      2.3197                 1.6991                 1.8107
 IR Inten    --     50.3567                 0.9554                26.7932

                     34                     35                     36
                      A                      A                      A
 Frequencies --    984.5496              1009.5527              1058.0087
 Red. masses --      4.6079                 3.1703                 2.9469
 Frc consts  --      2.6317                 1.9037                 1.9436
 IR Inten    --     65.8405                36.2783                14.0648

                     37                     38                     39
                      A                      A                      A
 Frequencies --   1069.0763              1095.2444              1102.2921
 Red. masses --      2.8766                 2.5688                 3.2833
 Frc consts  --      1.9371                 1.8155                 2.3505
 IR Inten    --     73.4752                28.3286                42.3090

                     40                     41                     42
                      A                      A                      A
 Frequencies --   1139.3623              1153.9097              1160.9149
 Red. masses --      3.0148                 3.2354                 2.7780
 Frc consts  --      2.3058                 2.5382                 2.2059
 IR Inten    --     86.3924               198.4563                90.7587

                     43                     44                     45
                      A                      A                      A
 Frequencies --   1168.8794              1174.4503              1181.2166
 Red. masses --      3.1082                 2.0483                 1.2860
 Frc consts  --      2.5021                 1.6646                 1.0572
 IR Inten    --    262.9379                10.1674                 5.8970

                     46                     47                     48
                      A                      A                      A
 Frequencies --   1183.4597              1188.6840              1189.7965
 Red. masses --      1.3278                 1.6138                 1.4265
 Frc consts  --      1.0957                 1.3435                 1.1898
 IR Inten    --     14.6824                48.1995                 3.3094

                     49                     50                     51
                      A                      A                      A
 Frequencies --   1222.9587              1228.5564              1233.0723
 Red. masses --      1.5472                 1.7725                 1.6862
 Frc consts  --      1.3634                 1.5762                 1.5106
 IR Inten    --     59.0695                56.5153                 8.7460

                     52                     53                     54
                      A                      A                      A
 Frequencies --   1239.1457              1252.2748              1279.3249
 Red. masses --      1.7315                 1.5903                 1.3643
 Frc consts  --      1.5664                 1.4693                 1.3156
 IR Inten    --     66.6081                33.6105                24.2391

                     55                     56                     57
                      A                      A                      A
 Frequencies --   1291.5075              1331.1717              1350.5497
 Red. masses --      1.1960                 1.2859                 1.1828
 Frc consts  --      1.1754                 1.3426                 1.2711
 IR Inten    --     50.2756                17.2295                49.9426

                     58                     59                     60
                      A                      A                      A
 Frequencies --   1374.8118              1390.7480              1404.5571
 Red. masses --      1.1810                 1.3646                 1.3021
 Frc consts  --      1.3152                 1.5551                 1.5135
 IR Inten    --      3.0197                 4.2489                 5.4282

                     61                     62                     63
                      A                      A                      A
 Frequencies --   1413.8132              1446.3898              1455.6107
 Red. masses --      1.3371                 1.2549                 1.3673
 Frc consts  --      1.5747                 1.5468                 1.7068
 IR Inten    --     23.9372                16.2064                45.1281

                     64                     65                     66
                      A                      A                      A
 Frequencies --   1496.1775              1497.3709              1498.2920
 Red. masses --      1.1401                 1.1510                 1.1553
 Frc consts  --      1.5037                 1.5205                 1.5280
 IR Inten    --      0.5234                 1.9551                 2.0417

                     67                     68                     69
                      A                      A                      A
 Frequencies --   1503.8550              1509.2899              1509.3613
 Red. masses --      1.1313                 1.0682                 1.0480
 Frc consts  --      1.5074                 1.4337                 1.4067
 IR Inten    --      1.3596                 7.3256                 8.8095

                     70                     71                     72
                      A                      A                      A
 Frequencies --   1517.3452              1518.5459              1523.0059
 Red. masses --      1.0497                 1.0493                 1.0583
 Frc consts  --      1.4239                 1.4257                 1.4464
 IR Inten    --     11.6503                 4.8881                20.5763

                     73                     74                     75
                      A                      A                      A
 Frequencies --   1526.2965              1532.6347              1535.7920
 Red. masses --      1.0515                 1.0495                 1.0495
 Frc consts  --      1.4432                 1.4524                 1.4585
 IR Inten    --     15.3832                20.7737                13.4247

                     76                     77                     78
                      A                      A                      A
 Frequencies --   1541.5062              1651.4047              2970.2955
 Red. masses --      1.1015                 6.8988                 1.0782
 Frc consts  --      1.5421                11.0848                 5.6049
 IR Inten    --      4.0529               239.6670                27.9917

                     79                     80                     81
                      A                      A                      A
 Frequencies --   3003.2818              3018.7072              3021.9783
 Red. masses --      1.0534                 1.0372                 1.0828
 Frc consts  --      5.5981                 5.5684                 5.8260
 IR Inten    --     36.9420                60.9588                20.8352

                     82                     83                     84
                      A                      A                      A
 Frequencies --   3036.6278              3039.2424              3043.0767
 Red. masses --      1.0421                 1.1050                 1.0365
 Frc consts  --      5.6614                 6.0138                 5.6549
 IR Inten    --     39.0318                46.9487                14.4806

                     85                     86                     87
                      A                      A                      A
 Frequencies --   3044.9365              3072.4634              3108.8979
 Red. masses --      1.0366                 1.1068                 1.0900
 Frc consts  --      5.6626                 6.1558                 6.2072
 IR Inten    --     77.3984                57.4802                13.4272

                     88                     89                     90
                      A                      A                      A
 Frequencies --   3109.9895              3124.3554              3126.0934
 Red. masses --      1.1024                 1.0969                 1.0982
 Frc consts  --      6.2821                 6.3088                 6.3229
 IR Inten    --     48.1384                29.8622                37.4236

                     91                     92                     93
                      A                      A                      A
 Frequencies --   3154.8424              3159.9426              3168.3359
 Red. masses --      1.0865                 1.0993                 1.1013
 Frc consts  --      6.3715                 6.4674                 6.5135
 IR Inten    --      0.6858                28.5202                17.9675

                     94                     95                     96
                      A                      A                      A
 Frequencies --   3168.6810              3181.9951              3192.8653
 Red. masses --      1.1047                 1.1034                 1.0942
 Frc consts  --      6.5353                 6.5821                 6.5720
 IR Inten    --     21.3676                15.0640                 2.1527

 - Thermochemistry -
 -------------------
 Temperature   298.150 Kelvin.  Pressure   1.00000 Atm.
 Atom     1 has atomic number  6 and mass  12.00000

 Molecular mass:   219.12325 amu.
 Principal axes and moments of inertia in atomic units:
                           1         2         3
     Eigenvalues --  2165.692164603.858816180.54225
           X            0.99996   0.00468   0.00773
           Y           -0.00484   0.99976   0.02119
           Z           -0.00763  -0.02122   0.99975
 This molecule is an asymmetric top.
 Rotational symmetry number  1.
 Warning -- assumption of classical behavior for rotation
           may cause significant error
 Rotational temperatures (Kelvin)      0.03999     0.01881     0.01401
 Rotational constants (GHZ):           0.83333     0.39201     0.29200
 Zero-point vibrational energy     773971.9 (Joules/Mol)
                                  184.98372 (Kcal/Mol)
 Warning -- explicit consideration of  27 degrees of freedom as
           vibrations may cause significant error
 Vibrational temperatures:     61.80    92.29    99.70   129.62   142.14
          (Kelvin)            148.06   179.30   207.60   245.25   252.57
                              273.26   316.69   324.01   348.20   358.10
                              401.35   428.46   438.54   491.55   527.29
                              573.74   599.38   690.89   773.99   800.33
                              836.48   880.55  1030.51  1045.94  1203.47
                             1337.87  1364.51  1405.19  1416.55  1452.52
                             1522.24  1538.16  1575.81  1585.95  1639.29
                             1660.22  1670.30  1681.76  1689.77  1699.51
                             1702.73  1710.25  1711.85  1759.56  1767.62
                             1774.12  1782.85  1801.74  1840.66  1858.19
                             1915.26  1943.14  1978.05  2000.98  2020.84
                             2034.16  2081.03  2094.30  2152.67  2154.38
                             2155.71  2163.71  2171.53  2171.63  2183.12
                             2184.85  2191.27  2196.00  2205.12  2209.66
                             2217.88  2376.00  4273.59  4321.05  4343.25
                             4347.95  4369.03  4372.79  4378.31  4380.98
                             4420.59  4473.01  4474.58  4495.25  4497.75
                             4539.11  4546.45  4558.53  4559.03  4578.18
                             4593.82

 Zero-point correction=                           0.294790 (Hartree/Particle)
 Thermal correction to Energy=                    0.311990
 Thermal correction to Enthalpy=                  0.312934
 Thermal correction to Gibbs Free Energy=         0.249905
 Sum of electronic and zero-point Energies=           -768.029944
 Sum of electronic and thermal Energies=              -768.012745
 Sum of electronic and thermal Enthalpies=            -768.011801
 Sum of electronic and thermal Free Energies=         -768.074830

                     E (Thermal)             CV                S
                      KCal/Mol        Cal/Mol-Kelvin    Cal/Mol-Kelvin
 Total                  195.776             61.592            132.656
 Electronic               0.000              0.000              0.000
 Translational            0.889              2.981             42.056
 Rotational               0.889              2.981             32.488
 Vibrational            193.999             55.631             58.112
 Vibration     1          0.595              1.980              5.118
 Vibration     2          0.597              1.971              4.326
 Vibration     3          0.598              1.969              4.173
 Vibration     4          0.602              1.956              3.658
 Vibration     5          0.604              1.950              3.478
 Vibration     6          0.605              1.947              3.399
 Vibration     7          0.610              1.928              3.027
 Vibration     8          0.616              1.909              2.746
 Vibration     9          0.626              1.879              2.430
 Vibration    10          0.627              1.873              2.375
 Vibration    11          0.633              1.854              2.229
 Vibration    12          0.647              1.810              1.958
 Vibration    13          0.650              1.803              1.917
 Vibration    14          0.658              1.776              1.788
 Vibration    15          0.662              1.765              1.738
 Vibration    16          0.679              1.712              1.540
 Vibration    17          0.691              1.678              1.429
 Vibration    18          0.696              1.665              1.390
 Vibration    19          0.721              1.592              1.204
 Vibration    20          0.739              1.541              1.094
 Vibration    21          0.765              1.473              0.967
 Vibration    22          0.780              1.434              0.904
 Vibration    23          0.837              1.294              0.710
 Vibration    24          0.893              1.166              0.570
 Vibration    25          0.912              1.126              0.531
 Vibration    26          0.938              1.072              0.483
 Vibration    27          0.971              1.006              0.429

 Optimization completed.
    -- Stationary point found.
 Normal termination of Gaussian 16 at Fri May 24 09:19:19 2019.
