 Gaussian 16, Revision A.03,
 Gaussian 16:  ES64L-G16RevA.03 25-Dec-2016

 -------------------------------------------------------------------
 #p b3lyp 6-31g* opt freq=noraman scrf=(pcm,solvent=tetrahydrofuran)
 -------------------------------------------------------------------

 -----
 title
 -----
 Symbolic Z-matrix:
 Charge =  1 Multiplicity = 1

 SCF Done:  E(RB3LYP) =  -768.321589987     A.U. after   13 cycles
 Optimization completed.
    -- Stationary point found.
 Normal termination of Gaussian 16 at Fri May 24 08:32:55 2019.

 --------------------------------------------------------------------
 #P Geom=AllCheck Guess=TCheck SCRF=Check GenChk RB3LYP/6-31G(d) Freq
 --------------------------------------------------------------------

 Structure from the checkpoint file:  "/scratch/Gau-28106.chk"
 -----
 title
 -----
 Charge =  1 Multiplicity = 1

                         Standard orientation:
 ---------------------------------------------------------------------
 Center     Atomic      Atomic             Coordinates (Angstroms)
 Number     Number       Type             X           Y           Z
 ---------------------------------------------------------------------
      1          6           0        0.732462    0.891508    0.439784
      2          6           0        1.663676    0.313087   -0.643829
      3          6           0        1.075775   -0.794943   -1.459535
      4          6           0       -1.047014   -0.822085   -0.271275
      5          6           0       -0.412423   -0.063292    0.895596
      6          1           0        1.678150   -1.272565   -2.231801
      7          1           0        1.958996    1.136989   -1.304823
      8          1           0        1.350112    1.125291    1.316144
      9          1           0       -1.510103   -1.744461    0.077909
     10          1           0       -1.218469    0.577380    1.264655
     11          8           0       -0.033215   -1.351738   -1.254483
     12          8           0        2.785219   -0.365753   -0.095538
     13          8           0        0.185288    2.063679   -0.143584
     14          8           0       -0.099497   -0.876905    2.007293
     15          6           0       -2.047956    0.002636   -1.116485
     16          1           0       -2.359390   -0.589448   -1.986992
     17          1           0       -1.562434    0.920200   -1.458301
     18          8           0       -3.138287    0.380146   -0.313942
     19          6           0        4.058678   -0.005819   -0.663511
     20          1           0        4.236270    1.067515   -0.535385
     21          1           0        4.801131   -0.580837   -0.110184
     22          1           0        4.110828   -0.265958   -1.726509
     23          6           0       -0.218612    3.066499    0.791825
     24          1           0        0.625743    3.366717    1.425091
     25          1           0       -0.552688    3.918098    0.197305
     26          1           0       -1.046177    2.730150    1.428170
     27          6           0        0.780113   -1.988295    1.827077
     28          1           0        0.850707   -2.467746    2.804973
     29          1           0        0.375488   -2.721616    1.115585
     30          1           0        1.779720   -1.678642    1.505419
     31          6           0       -4.195788   -0.578742   -0.250414
     32          1           0       -4.980614   -0.128794    0.359954
     33          1           0       -4.589172   -0.791789   -1.252657
     34          1           0       -3.877624   -1.519249    0.218070
 ---------------------------------------------------------------------

 SCF Done:  E(RB3LYP) =  -768.321589987     A.U. after    1 cycles

 The electronic state is 1-A.
 Alpha  occ. eigenvalues --  -19.32938 -19.22870 -19.19492 -19.19015 -19.18712
 Alpha  occ. eigenvalues --  -10.39502 -10.31850 -10.31619 -10.29388 -10.28972
 Alpha  occ. eigenvalues --  -10.27933 -10.26838 -10.25262 -10.24966 -10.24924
 Alpha  occ. eigenvalues --   -1.21524  -1.10466  -1.07824  -1.07020  -1.06487
 Alpha  occ. eigenvalues --   -0.86797  -0.85331  -0.77113  -0.75610  -0.74186
 Alpha  occ. eigenvalues --   -0.71494  -0.69004  -0.68461  -0.66451  -0.61697
 Alpha  occ. eigenvalues --   -0.59430  -0.58150  -0.57140  -0.54385  -0.53627
 Alpha  occ. eigenvalues --   -0.52852  -0.51295  -0.50984  -0.50541  -0.48983
 Alpha  occ. eigenvalues --   -0.48457  -0.47890  -0.47021  -0.46199  -0.46017
 Alpha  occ. eigenvalues --   -0.44626  -0.43032  -0.42302  -0.41355  -0.40946
 Alpha  occ. eigenvalues --   -0.39702  -0.37971  -0.36565  -0.35420  -0.34205
 Alpha  occ. eigenvalues --   -0.32877  -0.31364  -0.29466  -0.28137
 Alpha virt. eigenvalues --   -0.14971   0.00398   0.02902   0.04835   0.06247
 Alpha virt. eigenvalues --    0.07331   0.07672   0.09027   0.09932   0.10723
 Alpha virt. eigenvalues --    0.11352   0.11555   0.11836   0.12396   0.13071

 Mulliken charges:
               1
     1  C    0.097567
     2  C    0.034942
     3  C    0.293922
     4  C    0.018588
     5  C    0.098005
     6  H    0.274346
     7  H    0.240596
     8  H    0.197030
     9  H    0.234845
    10  H    0.209186
    11  O   -0.311918
    12  O   -0.459164
    13  O   -0.491110
    14  O   -0.479320
    15  C   -0.048787
    16  H    0.179087
    17  H    0.194917
    18  O   -0.462248
    19  C   -0.233880
    20  H    0.188195
    21  H    0.203924
    22  H    0.181821
    23  C   -0.224901
    24  H    0.166864
    25  H    0.187240
    26  H    0.167517
    27  C   -0.261424
    28  H    0.188177
    29  H    0.152906
    30  H    0.180120
    31  C   -0.225958
    32  H    0.185666
    33  H    0.164266
    34  H    0.158983
 Sum of Mulliken charges =   1.00000

 Dipole moment (field-independent basis, Debye):
    X=              3.8631    Y=             -1.7498    Z=             -4.5633  Tot=              6.2297
 Quadrupole moment (field-independent basis, Debye-Ang):
   XX=            -54.0591   YY=            -75.2330   ZZ=            -79.2706
   XY=              4.1543   XZ=             -5.3826   YZ=              5.1714

  Exact polarizability: 182.167   1.183 134.548  -2.617   0.644 127.402
 Approx polarizability: 193.721   1.715 154.575  -0.956   1.621 154.916

                      1                      2                      3
                      A                      A                      A
 Frequencies --     42.0614                54.8608                77.6324
 Red. masses --      3.8935                 3.7089                 3.2098
 Frc consts  --      0.0041                 0.0066                 0.0114
 IR Inten    --      3.3897                 1.9036                 0.8358

                      4                      5                      6
                      A                      A                      A
 Frequencies --     85.1778                98.2616               112.6959
 Red. masses --      3.0931                 2.7207                 2.8528
 Frc consts  --      0.0132                 0.0155                 0.0213
 IR Inten    --      2.5917                 3.8899                 3.1353

                      7                      8                      9
                      A                      A                      A
 Frequencies --    124.1166               141.4766               146.6525
 Red. masses --      2.0520                 2.0743                 1.6490
 Frc consts  --      0.0186                 0.0245                 0.0209
 IR Inten    --      2.4873                 8.3320                 1.4562

                     10                     11                     12
                      A                      A                      A
 Frequencies --    166.1223               174.2792               193.9162
 Red. masses --      1.6602                 1.6546                 1.8779
 Frc consts  --      0.0270                 0.0296                 0.0416
 IR Inten    --      1.1999                 1.2327                 6.3573

                     13                     14                     15
                      A                      A                      A
 Frequencies --    218.1318               220.9887               252.2761
 Red. masses --      1.6107                 1.6782                 2.5720
 Frc consts  --      0.0452                 0.0483                 0.0964
 IR Inten    --      3.9463                 2.5828                 9.6821

                     16                     17                     18
                      A                      A                      A
 Frequencies --    281.8345               306.6913               349.7814
 Red. masses --      4.1023                 3.8546                 4.1574
 Frc consts  --      0.1920                 0.2136                 0.2997
 IR Inten    --     19.4448                 4.7729                23.6653

                     19                     20                     21
                      A                      A                      A
 Frequencies --    370.5046               385.3792               422.9956
 Red. masses --      4.4957                 3.1514                 4.1329
 Frc consts  --      0.3636                 0.2758                 0.4357
 IR Inten    --      1.1957                 0.6509                11.9905

                     22                     23                     24
                      A                      A                      A
 Frequencies --    450.6137               465.3985               509.1758
 Red. masses --      4.6820                 2.9268                 3.9745
 Frc consts  --      0.5601                 0.3735                 0.6071
 IR Inten    --     28.4689                 3.9019                 9.1455

                     25                     26                     27
                      A                      A                      A
 Frequencies --    551.6337               568.1872               643.6243
 Red. masses --      4.2438                 5.1920                 4.6141
 Frc consts  --      0.7609                 0.9876                 1.1262
 IR Inten    --     56.3299                14.5820                 8.0729

                     28                     29                     30
                      A                      A                      A
 Frequencies --    746.6302               838.9155               849.3853
 Red. masses --      5.3703                 2.5242                 2.5886
 Frc consts  --      1.7638                 1.0467                 1.1003
 IR Inten    --     45.8204                 3.4068                15.1908

                     31                     32                     33
                      A                      A                      A
 Frequencies --    905.3466               926.7341               937.5411
 Red. masses --      4.5095                 2.7855                 4.4343
 Frc consts  --      2.1778                 1.4095                 2.2964
 IR Inten    --     75.3016                40.6658                31.0219

                     34                     35                     36
                      A                      A                      A
 Frequencies --    957.6346               985.7113              1021.4636
 Red. masses --      2.7210                 4.7151                 3.4457
 Frc consts  --      1.4702                 2.6992                 2.1183
 IR Inten    --     24.4282                40.9502                12.7598

                     37                     38                     39
                      A                      A                      A
 Frequencies --   1035.8297              1083.5531              1095.2289
 Red. masses --      2.7750                 3.0568                 2.5572
 Frc consts  --      1.7542                 2.1146                 1.8073
 IR Inten    --      4.5189                61.0430               127.2333

                     40                     41                     42
                      A                      A                      A
 Frequencies --   1104.0747              1133.4633              1138.5616
 Red. masses --      3.6486                 3.5452                 3.7330
 Frc consts  --      2.6205                 2.6835                 2.8512
 IR Inten    --     96.8985               271.4401                34.5169

                     43                     44                     45
                      A                      A                      A
 Frequencies --   1148.7901              1176.4065              1186.2706
 Red. masses --      1.7854                 3.1874                 1.2738
 Frc consts  --      1.3882                 2.5990                 1.0561
 IR Inten    --     90.0959               122.1836                 4.9070

                     46                     47                     48
                      A                      A                      A
 Frequencies --   1188.1539              1189.7039              1190.6738
 Red. masses --      1.2782                 1.2974                 1.4011
 Frc consts  --      1.0631                 1.0820                 1.1703
 IR Inten    --      0.1000                 5.4785                27.9747

                     49                     50                     51
                      A                      A                      A
 Frequencies --   1208.7694              1224.5087              1228.0665
 Red. masses --      1.3774                 1.5672                 1.5946
 Frc consts  --      1.1857                 1.3845                 1.4169
 IR Inten    --      9.1370                56.7283                46.8102

                     52                     53                     54
                      A                      A                      A
 Frequencies --   1238.2079              1249.7555              1320.9603
 Red. masses --      1.5090                 1.9570                 1.3462
 Frc consts  --      1.3631                 1.8009                 1.3840
 IR Inten    --     35.9130                 1.6924                16.3678

                     55                     56                     57
                      A                      A                      A
 Frequencies --   1329.2360              1337.5809              1351.5608
 Red. masses --      1.2214                 1.2430                 1.2398
 Frc consts  --      1.2714                 1.3103                 1.3344
 IR Inten    --      5.4505                31.3910                 8.6763

                     58                     59                     60
                      A                      A                      A
 Frequencies --   1364.6650              1385.4975              1396.6117
 Red. masses --      1.3427                 1.3703                 1.5707
 Frc consts  --      1.4733                 1.5498                 1.8051
 IR Inten    --      6.1984                34.6174                23.3508

                     61                     62                     63
                      A                      A                      A
 Frequencies --   1423.9952              1437.9340              1444.9652
 Red. masses --      1.2640                 1.2532                 1.2684
 Frc consts  --      1.5101                 1.5267                 1.5603
 IR Inten    --      8.6800                 8.3445                38.5939

                     64                     65                     66
                      A                      A                      A
 Frequencies --   1494.0008              1496.4181              1499.4659
 Red. masses --      1.1110                 1.1128                 1.1163
 Frc consts  --      1.4611                 1.4682                 1.4787
 IR Inten    --     13.7000                 0.1903                 1.2009

                     67                     68                     69
                      A                      A                      A
 Frequencies --   1509.6726              1512.4434              1515.2382
 Red. masses --      1.1379                 1.0529                 1.0569
 Frc consts  --      1.5280                 1.4191                 1.4297
 IR Inten    --      2.5674                 8.7437                13.0674

                     70                     71                     72
                      A                      A                      A
 Frequencies --   1516.0528              1520.1771              1520.7972
 Red. masses --      1.0599                 1.0807                 1.0665
 Frc consts  --      1.4353                 1.4714                 1.4533
 IR Inten    --      8.9226                 2.6050                16.6362

                     73                     74                     75
                      A                      A                      A
 Frequencies --   1527.2386              1529.7862              1531.6538
 Red. masses --      1.0529                 1.0622                 1.0765
 Frc consts  --      1.4469                 1.4646                 1.4880
 IR Inten    --     27.4364                17.1301                17.4258

                     76                     77                     78
                      A                      A                      A
 Frequencies --   1535.8243              1637.1094              3029.9759
 Red. masses --      1.0495                 5.5917                 1.0425
 Frc consts  --      1.4586                 8.8297                 5.6391
 IR Inten    --     17.5388               305.2179                48.7032

                     79                     80                     81
                      A                      A                      A
 Frequencies --   3031.0069              3038.5504              3051.1754
 Red. masses --      1.0349                 1.0337                 1.0643
 Frc consts  --      5.6016                 5.6232                 5.8377
 IR Inten    --     61.3207                46.5103                39.9508

                     82                     83                     84
                      A                      A                      A
 Frequencies --   3055.3666              3064.1802              3076.7363
 Red. masses --      1.0318                 1.0854                 1.0833
 Frc consts  --      5.6753                 6.0044                 6.0421
 IR Inten    --     40.6843                17.5874                 0.9257

                     85                     86                     87
                      A                      A                      A
 Frequencies --   3090.8752              3100.7402              3110.5289
 Red. masses --      1.1062                 1.1067                 1.0848
 Frc consts  --      6.2263                 6.2691                 6.1839
 IR Inten    --     58.2622                47.8993                 5.5706

                     88                     89                     90
                      A                      A                      A
 Frequencies --   3113.8011              3127.6399              3136.0366
 Red. masses --      1.0941                 1.1080                 1.1009
 Frc consts  --      6.2501                 6.3858                 6.3789
 IR Inten    --     27.7421                26.1504                 5.0972

                     91                     92                     93
                      A                      A                      A
 Frequencies --   3164.3059              3164.4527              3167.0801
 Red. masses --      1.0997                 1.1031                 1.0896
 Frc consts  --      6.4873                 6.5079                 6.4392
 IR Inten    --     24.1996                19.4023                 4.8358

                     94                     95                     96
                      A                      A                      A
 Frequencies --   3168.8913              3187.8277              3214.6473
 Red. masses --      1.1012                 1.1037                 1.0930
 Frc consts  --      6.5153                 6.6084                 6.6550
 IR Inten    --     20.8110                11.3044                 1.2741

 - Thermochemistry -
 -------------------
 Temperature   298.150 Kelvin.  Pressure   1.00000 Atm.
 Atom     1 has atomic number  6 and mass  12.00000

 Molecular mass:   219.12325 amu.
 Principal axes and moments of inertia in atomic units:
                           1         2         3
     Eigenvalues --  2176.576864302.270434761.18386
           X            0.99996   0.00880  -0.00163
           Y           -0.00879   0.99994   0.00622
           Z            0.00169  -0.00621   0.99998
 This molecule is an asymmetric top.
 Rotational symmetry number  1.
 Warning -- assumption of classical behavior for rotation
           may cause significant error
 Rotational temperatures (Kelvin)      0.03979     0.02013     0.01819
 Rotational constants (GHZ):           0.82916     0.41949     0.37905
 Zero-point vibrational energy     775398.8 (Joules/Mol)
                                  185.32476 (Kcal/Mol)
 Warning -- explicit consideration of  26 degrees of freedom as
           vibrations may cause significant error
 Vibrational temperatures:     60.52    78.93   111.70   122.55   141.38
          (Kelvin)            162.14   178.58   203.55   211.00   239.01
                              250.75   279.00   313.84   317.95   362.97
                              405.50   441.26   503.26   533.07   554.47
                              608.60   648.33   669.60   732.59   793.68
                              817.49   926.03  1074.23  1207.01  1222.08
                             1302.59  1333.36  1348.91  1377.82  1418.22
                             1469.66  1490.33  1558.99  1575.79  1588.52
                             1630.80  1638.14  1652.85  1692.59  1706.78
                             1709.49  1711.72  1713.11  1739.15  1761.79
                             1766.91  1781.51  1798.12  1900.57  1912.47
                             1924.48  1944.59  1963.45  1993.42  2009.41
                             2048.81  2068.87  2078.98  2149.53  2153.01
                             2157.40  2172.08  2176.07  2180.09  2181.26
                             2187.20  2188.09  2197.36  2201.02  2203.71
                             2209.71  2355.44  4359.46  4360.94  4371.80
                             4389.96  4395.99  4408.67  4426.74  4447.08
                             4461.27  4475.36  4480.07  4499.98  4512.06
                             4552.73  4552.94  4556.72  4559.33  4586.57
                             4625.16

 Zero-point correction=                           0.295334 (Hartree/Particle)
 Thermal correction to Energy=                    0.312540
 Thermal correction to Enthalpy=                  0.313484
 Thermal correction to Gibbs Free Energy=         0.250388
 Sum of electronic and zero-point Energies=           -768.026256
 Sum of electronic and thermal Energies=              -768.009050
 Sum of electronic and thermal Enthalpies=            -768.008106
 Sum of electronic and thermal Free Energies=         -768.071202

                     E (Thermal)             CV                S
                      KCal/Mol        Cal/Mol-Kelvin    Cal/Mol-Kelvin
 Total                  196.122             61.497            132.797
 Electronic               0.000              0.000              0.000
 Translational            0.889              2.981             42.056
 Rotational               0.889              2.981             32.167
 Vibrational            194.344             55.536             58.574
 Vibration     1          0.595              1.980              5.160
 Vibration     2          0.596              1.976              4.634
 Vibration     3          0.599              1.964              3.950
 Vibration     4          0.601              1.959              3.768
 Vibration     5          0.604              1.950              3.489
 Vibration     6          0.607              1.939              3.222
 Vibration     7          0.610              1.929              3.035
 Vibration     8          0.615              1.912              2.784
 Vibration     9          0.617              1.906              2.715
 Vibration    10          0.624              1.884              2.479
 Vibration    11          0.627              1.874              2.389
 Vibration    12          0.635              1.848              2.190
 Vibration    13          0.646              1.813              1.975
 Vibration    14          0.648              1.809              1.951
 Vibration    15          0.664              1.759              1.715
 Vibration    16          0.681              1.707              1.523
 Vibration    17          0.697              1.661              1.380
 Vibration    18          0.727              1.576              1.167
 Vibration    19          0.743              1.533              1.078
 Vibration    20          0.754              1.501              1.018
 Vibration    21          0.785              1.420              0.882
 Vibration    22          0.809              1.360              0.794
 Vibration    23          0.823              1.327              0.751
 Vibration    24          0.864              1.230              0.636
 Vibration    25          0.907              1.136              0.541
 Vibration    26          0.924              1.100              0.508

 Optimization completed.
    -- Stationary point found.
 Normal termination of Gaussian 16 at Fri May 24 08:51:56 2019.
