 Gaussian 16, Revision A.03,
 Gaussian 16:  ES64L-G16RevA.03 25-Dec-2016

 -------------------------------------------------------------------
 #p b3lyp 6-31g* opt freq=noraman scrf=(pcm,solvent=tetrahydrofuran)
 -------------------------------------------------------------------

 -----
 title
 -----
 Symbolic Z-matrix:
 Charge =  1 Multiplicity = 1

 SCF Done:  E(RB3LYP) =  -768.322870727     A.U. after   14 cycles
 Optimization completed.
    -- Stationary point found.
 Normal termination of Gaussian 16 at Fri May 24 08:34:38 2019.

 --------------------------------------------------------------------
 #P Geom=AllCheck Guess=TCheck SCRF=Check GenChk RB3LYP/6-31G(d) Freq
 --------------------------------------------------------------------

 Structure from the checkpoint file:  "/scratch/Gau-44096.chk"
 -----
 title
 -----
 Charge =  1 Multiplicity = 1

                         Standard orientation:
 ---------------------------------------------------------------------
 Center     Atomic      Atomic             Coordinates (Angstroms)
 Number     Number       Type             X           Y           Z
 ---------------------------------------------------------------------
      1          6           0       -0.928273    0.597086   -0.569620
      2          6           0       -1.799786   -0.527264    0.059922
      3          6           0       -1.192456   -1.850199   -0.261433
      4          6           0        1.087326   -0.988352   -0.374156
      5          6           0        0.539101    0.426532   -0.114560
      6          1           0       -1.822426   -2.729196   -0.405536
      7          1           0       -1.784706   -0.424257    1.161267
      8          1           0       -0.963005    0.480059   -1.658018
      9          1           0        1.515913   -1.019863   -1.376365
     10          1           0        0.626945    0.653324    0.955201
     11          8           0        0.029849   -2.054531   -0.468424
     12          8           0       -3.098654   -0.488740   -0.461306
     13          8           0       -1.427626    1.886610   -0.333271
     14          8           0        1.385135    1.268651   -0.871096
     15          6           0        2.069463   -1.515908    0.694799
     16          1           0        2.478091   -2.481372    0.365952
     17          1           0        1.522129   -1.668901    1.630540
     18          8           0        3.077904   -0.578030    0.963198
     19          6           0       -4.127209   -0.966692    0.417352
     20          1           0       -4.015845   -2.037761    0.628190
     21          1           0       -4.123765   -0.408311    1.361330
     22          1           0       -5.068710   -0.800520   -0.106470
     23          6           0       -1.772447    2.239134    1.006534
     24          1           0       -0.952757    2.070879    1.715139
     25          1           0       -2.000223    3.305774    0.980742
     26          1           0       -2.665638    1.699133    1.345031
     27          6           0        1.774032    2.484311   -0.224696
     28          1           0        0.915066    3.144178   -0.067933
     29          1           0        2.267884    2.273419    0.731696
     30          1           0        2.483384    2.968197   -0.898660
     31          6           0        4.123646   -0.528961   -0.010312
     32          1           0        4.533083   -1.530652   -0.195786
     33          1           0        3.777800   -0.091336   -0.954052
     34          1           0        4.903524    0.107402    0.411954
 ---------------------------------------------------------------------

 SCF Done:  E(RB3LYP) =  -768.322870727     A.U. after    1 cycles

 The electronic state is 1-A.
 Alpha  occ. eigenvalues --  -19.33335 -19.21361 -19.19559 -19.19007 -19.18927
 Alpha  occ. eigenvalues --  -10.39842 -10.32187 -10.31938 -10.29714 -10.29424
 Alpha  occ. eigenvalues --  -10.28100 -10.26425 -10.25631 -10.24666 -10.24649
 Alpha  occ. eigenvalues --   -1.21942  -1.10143  -1.08181  -1.07036  -1.06256
 Alpha  occ. eigenvalues --   -0.87145  -0.86010  -0.77278  -0.75316  -0.74348
 Alpha  occ. eigenvalues --   -0.71666  -0.69443  -0.67498  -0.65481  -0.62580
 Alpha  occ. eigenvalues --   -0.60664  -0.59370  -0.55819  -0.55159  -0.53771
 Alpha  occ. eigenvalues --   -0.52527  -0.51947  -0.50815  -0.50385  -0.49043
 Alpha  occ. eigenvalues --   -0.48708  -0.47844  -0.46473  -0.46025  -0.45418
 Alpha  occ. eigenvalues --   -0.44250  -0.43877  -0.42004  -0.41798  -0.40725
 Alpha  occ. eigenvalues --   -0.39817  -0.37962  -0.35837  -0.34818  -0.34707
 Alpha  occ. eigenvalues --   -0.31978  -0.31624  -0.29727  -0.28034
 Alpha virt. eigenvalues --   -0.15363  -0.00613   0.03773   0.04612   0.06359
 Alpha virt. eigenvalues --    0.06696   0.07813   0.08694   0.09728   0.10102
 Alpha virt. eigenvalues --    0.10865   0.11654   0.11942   0.12472   0.13004

 Mulliken charges:
               1
     1  C    0.133983
     2  C    0.011803
     3  C    0.295092
     4  C    0.053430
     5  C    0.090884
     6  H    0.277819
     7  H    0.228632
     8  H    0.195020
     9  H    0.243574
    10  H    0.179125
    11  O   -0.309927
    12  O   -0.464678
    13  O   -0.469538
    14  O   -0.484898
    15  C   -0.044425
    16  H    0.179707
    17  H    0.184164
    18  O   -0.460603
    19  C   -0.237043
    20  H    0.170276
    21  H    0.176769
    22  H    0.201830
    23  C   -0.246547
    24  H    0.164405
    25  H    0.195467
    26  H    0.167655
    27  C   -0.226481
    28  H    0.169729
    29  H    0.164999
    30  H    0.180468
    31  C   -0.226633
    32  H    0.159691
    33  H    0.164563
    34  H    0.181686
 Sum of Mulliken charges =   1.00000

 Dipole moment (field-independent basis, Debye):
    X=             -2.6694    Y=             -5.4884    Z=              2.2085  Tot=              6.4904
 Quadrupole moment (field-independent basis, Debye-Ang):
   XX=            -58.4276   YY=            -68.3377   ZZ=            -86.2752
   XY=              7.6593   XZ=            -10.1645   YZ=              5.1144

  Exact polarizability: 180.887   4.487 151.299  -5.877   4.003 112.127
 Approx polarizability: 187.889   0.977 173.134  -4.592   3.535 143.828

                      1                      2                      3
                      A                      A                      A
 Frequencies --     29.7276                60.2559                74.5382
 Red. masses --      3.9785                 3.7845                 3.2226
 Frc consts  --      0.0021                 0.0081                 0.0105
 IR Inten    --      1.8033                 1.8498                 0.4056

                      4                      5                      6
                      A                      A                      A
 Frequencies --     84.7131               109.7037               135.0267
 Red. masses --      2.4966                 2.7362                 2.9779
 Frc consts  --      0.0106                 0.0194                 0.0320
 IR Inten    --      9.4278                 4.9987                 2.2309

                      7                      8                      9
                      A                      A                      A
 Frequencies --    139.2702               145.4866               176.2102
 Red. masses --      2.2780                 2.4630                 1.3692
 Frc consts  --      0.0260                 0.0307                 0.0250
 IR Inten    --      2.9722                 4.0341                 1.5704

                     10                     11                     12
                      A                      A                      A
 Frequencies --    186.3916               200.8416               220.0242
 Red. masses --      1.6910                 1.8569                 2.5113
 Frc consts  --      0.0346                 0.0441                 0.0716
 IR Inten    --      2.4158                 4.2105                 9.3620

                     13                     14                     15
                      A                      A                      A
 Frequencies --    226.3559               239.6463               257.2094
 Red. masses --      2.2265                 1.6524                 1.8980
 Frc consts  --      0.0672                 0.0559                 0.0740
 IR Inten    --      0.6987                 0.0027                 5.6561

                     16                     17                     18
                      A                      A                      A
 Frequencies --    281.4026               304.8818               316.0528
 Red. masses --      2.2728                 3.8787                 4.4913
 Frc consts  --      0.1060                 0.2124                 0.2643
 IR Inten    --      3.0995                 1.3543                17.3810

                     19                     20                     21
                      A                      A                      A
 Frequencies --    368.4058               400.7380               417.0604
 Red. masses --      4.6338                 4.0458                 2.8631
 Frc consts  --      0.3705                 0.3828                 0.2934
 IR Inten    --      8.7330                13.7948                 8.8577

                     22                     23                     24
                      A                      A                      A
 Frequencies --    440.9757               469.5900               486.9466
 Red. masses --      4.2465                 3.6970                 3.7727
 Frc consts  --      0.4865                 0.4803                 0.5271
 IR Inten    --      2.0574                34.8346                13.8888

                     25                     26                     27
                      A                      A                      A
 Frequencies --    531.0794               550.2268               606.0469
 Red. masses --      3.1407                 3.4719                 3.1650
 Frc consts  --      0.5219                 0.6193                 0.6849
 IR Inten    --     13.6278                21.9172                18.5623

                     28                     29                     30
                      A                      A                      A
 Frequencies --    710.8720               802.5963               849.5179
 Red. masses --      4.7844                 6.5639                 2.0427
 Frc consts  --      1.4245                 2.4912                 0.8686
 IR Inten    --     62.8447                53.6763                 3.0258

                     31                     32                     33
                      A                      A                      A
 Frequencies --    922.3927               941.9020               953.5355
 Red. masses --      2.3595                 5.3393                 3.5872
 Frc consts  --      1.1828                 2.7909                 1.9217
 IR Inten    --     18.7741                20.9352                52.3518

                     34                     35                     36
                      A                      A                      A
 Frequencies --    968.0536              1009.8549              1052.1763
 Red. masses --      3.2140                 5.2504                 3.9822
 Frc consts  --      1.7746                 3.1547                 2.5975
 IR Inten    --     48.3789                12.7956                53.9231

                     37                     38                     39
                      A                      A                      A
 Frequencies --   1067.5998              1076.9878              1111.1135
 Red. masses --      2.7861                 2.9239                 2.6556
 Frc consts  --      1.8709                 1.9982                 1.9317
 IR Inten    --     42.5602                44.2835                 2.6794

                     40                     41                     42
                      A                      A                      A
 Frequencies --   1137.0876              1140.8780              1148.5024
 Red. masses --      2.5883                 4.2512                 3.1335
 Frc consts  --      1.9717                 3.2602                 2.4353
 IR Inten    --     75.7330               303.1645               122.6377

                     43                     44                     45
                      A                      A                      A
 Frequencies --   1160.0530              1167.0317              1179.9578
 Red. masses --      2.5372                 3.3789                 1.2611
 Frc consts  --      2.0117                 2.7114                 1.0345
 IR Inten    --     84.0498                49.0237                 2.2581

                     46                     47                     48
                      A                      A                      A
 Frequencies --   1186.3438              1186.9001              1193.0963
 Red. masses --      1.5021                 1.2895                 1.2790
 Frc consts  --      1.2456                 1.0703                 1.0727
 IR Inten    --     11.8022                 3.7318                 4.5195

                     49                     50                     51
                      A                      A                      A
 Frequencies --   1213.3466              1224.2572              1231.2976
 Red. masses --      1.4406                 1.7614                 1.7001
 Frc consts  --      1.2496                 1.5555                 1.5187
 IR Inten    --     29.7580                98.2473                75.9641

                     52                     53                     54
                      A                      A                      A
 Frequencies --   1238.8896              1259.6858              1288.9796
 Red. masses --      1.6805                 1.6025                 1.4064
 Frc consts  --      1.5197                 1.4982                 1.3767
 IR Inten    --     22.4193                12.8201                92.6785

                     55                     56                     57
                      A                      A                      A
 Frequencies --   1314.8042              1328.0615              1342.9647
 Red. masses --      1.3386                 1.1675                 1.2602
 Frc consts  --      1.3634                 1.2133                 1.3391
 IR Inten    --      5.9183                28.8634                 6.2077

                     58                     59                     60
                      A                      A                      A
 Frequencies --   1356.0587              1374.3376              1410.7244
 Red. masses --      1.1882                 1.3109                 1.2984
 Frc consts  --      1.2874                 1.4589                 1.5224
 IR Inten    --      4.5913                 4.3480                 2.3946

                     61                     62                     63
                      A                      A                      A
 Frequencies --   1422.6974              1433.6754              1436.7844
 Red. masses --      1.3300                 1.2571                 1.2706
 Frc consts  --      1.5861                 1.5224                 1.5455
 IR Inten    --      1.1788                33.1750                44.7095

                     64                     65                     66
                      A                      A                      A
 Frequencies --   1493.4751              1497.5945              1500.9808
 Red. masses --      1.1573                 1.1235                 1.1251
 Frc consts  --      1.5209                 1.4846                 1.4934
 IR Inten    --      2.0314                 1.2391                 2.9012

                     67                     68                     69
                      A                      A                      A
 Frequencies --   1505.6705              1511.3773              1513.4903
 Red. masses --      1.1138                 1.0576                 1.0639
 Frc consts  --      1.4878                 1.4234                 1.4359
 IR Inten    --      0.6726                 9.4440                 2.9068

                     70                     71                     72
                      A                      A                      A
 Frequencies --   1523.6939              1524.4085              1525.1891
 Red. masses --      1.0595                 1.0834                 1.0764
 Frc consts  --      1.4492                 1.4834                 1.4753
 IR Inten    --      6.7769                10.1278                26.1848

                     73                     74                     75
                      A                      A                      A
 Frequencies --   1527.7354              1530.2205              1532.8770
 Red. masses --      1.0505                 1.0536                 1.0510
 Frc consts  --      1.4446                 1.4535                 1.4550
 IR Inten    --     11.1865                 6.8696                 5.9477

                     76                     77                     78
                      A                      A                      A
 Frequencies --   1533.6223              1641.3994              2958.6586
 Red. masses --      1.0530                 6.5289                 1.0786
 Frc consts  --      1.4592                10.3638                 5.5631
 IR Inten    --     11.1629               291.8955                15.9671

                     79                     80                     81
                      A                      A                      A
 Frequencies --   3034.7929              3039.6920              3042.3011
 Red. masses --      1.0353                 1.0345                 1.0376
 Frc consts  --      5.6182                 5.6318                 5.6585
 IR Inten    --     49.5525                29.4691                33.5205

                     82                     83                     84
                      A                      A                      A
 Frequencies --   3044.7463              3047.0298              3053.5881
 Red. masses --      1.0622                 1.0365                 1.0775
 Frc consts  --      5.8017                 5.6698                 5.9197
 IR Inten    --     60.1269                37.7580                36.6379

                     85                     86                     87
                      A                      A                      A
 Frequencies --   3095.2805              3101.3215              3104.4951
 Red. masses --      1.0862                 1.1057                 1.1060
 Frc consts  --      6.1314                 6.2657                 6.2806
 IR Inten    --     11.9237                47.7046                69.7028

                     88                     89                     90
                      A                      A                      A
 Frequencies --   3105.4342              3117.0817              3122.5265
 Red. masses --      1.1062                 1.1011                 1.1045
 Frc consts  --      6.2852                 6.3033                 6.3447
 IR Inten    --     36.0839                21.6813                36.3471

                     91                     92                     93
                      A                      A                      A
 Frequencies --   3159.4439              3161.1404              3164.1443
 Red. masses --      1.0901                 1.0992                 1.1037
 Frc consts  --      6.4111                 6.4714                 6.5107
 IR Inten    --      3.2127                22.7982                24.6000

                     94                     95                     96
                      A                      A                      A
 Frequencies --   3166.8694              3181.8045              3199.7640
 Red. masses --      1.1005                 1.1013                 1.0934
 Frc consts  --      6.5025                 6.5692                 6.5960
 IR Inten    --     17.5753                15.4853                 1.1556

 - Thermochemistry -
 -------------------
 Temperature   298.150 Kelvin.  Pressure   1.00000 Atm.
 Atom     1 has atomic number  6 and mass  12.00000

 Molecular mass:   219.12325 amu.
 Principal axes and moments of inertia in atomic units:
                           1         2         3
     Eigenvalues --  1961.662724401.525545770.82385
           X            0.99987   0.00742  -0.01451
           Y           -0.00725   0.99990   0.01234
           Z            0.01460  -0.01224   0.99982
 This molecule is an asymmetric top.
 Rotational symmetry number  1.
 Warning -- assumption of classical behavior for rotation
           may cause significant error
 Rotational temperatures (Kelvin)      0.04415     0.01968     0.01501
 Rotational constants (GHZ):           0.92001     0.41003     0.31274
 Zero-point vibrational energy     774962.9 (Joules/Mol)
                                  185.22057 (Kcal/Mol)
 Warning -- explicit consideration of  27 degrees of freedom as
           vibrations may cause significant error
 Vibrational temperatures:     42.77    86.69   107.24   121.88   157.84
          (Kelvin)            194.27   200.38   209.32   253.53   268.18
                              288.97   316.57   325.68   344.80   370.07
                              404.88   438.66   454.73   530.05   576.57
                              600.06   634.47   675.64   700.61   764.10
                              791.65   871.97  1022.79  1154.76  1222.27
                             1327.12  1355.19  1371.92  1392.81  1452.96
                             1513.85  1536.04  1549.55  1598.64  1636.02
                             1641.47  1652.44  1669.06  1679.10  1697.70
                             1706.88  1707.68  1716.60  1745.74  1761.43
                             1771.56  1782.49  1812.41  1854.55  1891.71
                             1910.78  1932.23  1951.07  1977.37  2029.72
                             2046.94  2062.74  2067.21  2148.78  2154.70
                             2159.58  2166.32  2174.53  2177.57  2192.26
                             2193.28  2194.41  2198.07  2201.65  2205.47
                             2206.54  2361.61  4256.85  4366.39  4373.44
                             4377.19  4380.71  4384.00  4393.43  4453.42
                             4462.11  4466.68  4468.03  4484.79  4492.62
                             4545.74  4548.18  4552.50  4556.42  4577.91
                             4603.75

 Zero-point correction=                           0.295168 (Hartree/Particle)
 Thermal correction to Energy=                    0.312184
 Thermal correction to Enthalpy=                  0.313128
 Thermal correction to Gibbs Free Energy=         0.250544
 Sum of electronic and zero-point Energies=           -768.027703
 Sum of electronic and thermal Energies=              -768.010687
 Sum of electronic and thermal Enthalpies=            -768.009743
 Sum of electronic and thermal Free Energies=         -768.072327

                     E (Thermal)             CV                S
                      KCal/Mol        Cal/Mol-Kelvin    Cal/Mol-Kelvin
 Total                  195.898             61.488            131.720
 Electronic               0.000              0.000              0.000
 Translational            0.889              2.981             42.056
 Rotational               0.889              2.981             32.277
 Vibrational            194.121             55.527             57.386
 Vibration     1          0.594              1.984              5.848
 Vibration     2          0.597              1.973              4.449
 Vibration     3          0.599              1.966              4.030
 Vibration     4          0.601              1.960              3.779
 Vibration     5          0.606              1.941              3.274
 Vibration     6          0.613              1.918              2.873
 Vibration     7          0.615              1.914              2.814
 Vibration     8          0.617              1.908              2.730
 Vibration     9          0.628              1.872              2.368
 Vibration    10          0.632              1.858              2.263
 Vibration    11          0.638              1.839              2.125
 Vibration    12          0.647              1.811              1.959
 Vibration    13          0.650              1.801              1.908
 Vibration    14          0.657              1.780              1.806
 Vibration    15          0.667              1.751              1.681
 Vibration    16          0.681              1.708              1.525
 Vibration    17          0.696              1.664              1.390
 Vibration    18          0.703              1.643              1.330
 Vibration    19          0.741              1.537              1.086
 Vibration    20          0.767              1.469              0.960
 Vibration    21          0.780              1.433              0.902
 Vibration    22          0.801              1.381              0.824
 Vibration    23          0.827              1.318              0.739
 Vibration    24          0.843              1.279              0.692
 Vibration    25          0.886              1.181              0.585
 Vibration    26          0.906              1.139              0.544
 Vibration    27          0.965              1.019              0.439

                           ! Non-Optimized Parameters !
 Normal termination of Gaussian 16 at Fri May 24 09:02:13 2019.
