 Gaussian 16, Revision A.03,
 Gaussian 16:  ES64L-G16RevA.03 25-Dec-2016

 -------------------------------------------------------------------
 #p b3lyp 6-31g* opt freq=noraman scrf=(pcm,solvent=tetrahydrofuran)
 -------------------------------------------------------------------

 -----
 title
 -----
 Symbolic Z-matrix:
 Charge =  1 Multiplicity = 1

 SCF Done:  E(RB3LYP) =  -768.330097393     A.U. after   13 cycles
 Optimization completed.
    -- Stationary point found.
 Normal termination of Gaussian 16 at Fri May 24 08:32:38 2019.

 --------------------------------------------------------------------
 #P Geom=AllCheck Guess=TCheck SCRF=Check GenChk RB3LYP/6-31G(d) Freq
 --------------------------------------------------------------------

 Structure from the checkpoint file:  "/scratch/Gau-27875.chk"
 -----
 title
 -----
 Charge =  1 Multiplicity = 1

                         Standard orientation:
 ---------------------------------------------------------------------
 Center     Atomic      Atomic             Coordinates (Angstroms)
 Number     Number       Type             X           Y           Z
 ---------------------------------------------------------------------
      1          6           0       -1.076846    0.286957    0.046303
      2          6           0       -0.826704   -1.244562    0.078497
      3          6           0       -0.083650   -1.623016   -1.153589
      4          6           0        1.341481    0.320769   -0.981068
      5          6           0        0.261001    1.047409   -0.127678
      6          1           0       -0.315850   -2.540522   -1.697925
      7          1           0       -0.122894   -1.435179    0.906281
      8          1           0       -1.709866    0.544777   -0.815068
      9          1           0        1.615996    0.934263   -1.838797
     10          1           0        0.677307    1.182209    0.879368
     11          8           0        0.832724   -0.930649   -1.661563
     12          8           0       -1.925302   -2.078211    0.288842
     13          8           0       -1.717748    0.599951    1.251837
     14          8           0       -0.069896    2.292322   -0.709008
     15          6           0        2.579204   -0.134901   -0.226346
     16          1           0        3.093433    0.763821    0.147884
     17          1           0        3.266232   -0.656780   -0.908542
     18          8           0        2.154123   -0.975704    0.821636
     19          6           0       -3.089863   -1.815391   -0.503849
     20          1           0       -3.566966   -0.875468   -0.209307
     21          1           0       -2.859482   -1.791553   -1.578006
     22          1           0       -3.771865   -2.643154   -0.307237
     23          6           0       -2.507949    1.793831    1.240164
     24          1           0       -1.885828    2.690332    1.162207
     25          1           0       -3.225181    1.780466    0.409031
     26          1           0       -3.050791    1.802453    2.186894
     27          6           0        0.839469    3.355659   -0.418866
     28          1           0        0.956020    3.489532    0.664453
     29          1           0        1.827148    3.188883   -0.869027
     30          1           0        0.403623    4.256930   -0.852816
     31          6           0        3.229479   -1.494757    1.604294
     32          1           0        3.910283   -2.094308    0.986152
     33          1           0        3.793570   -0.683397    2.081917
     34          1           0        2.780172   -2.126949    2.371423
 ---------------------------------------------------------------------

 SCF Done:  E(RB3LYP) =  -768.330097393     A.U. after    1 cycles

 The electronic state is 1-A.
 Alpha  occ. eigenvalues --  -19.32880 -19.20310 -19.19769 -19.19312 -19.19035
 Alpha  occ. eigenvalues --  -10.39451 -10.32208 -10.31250 -10.29782 -10.29548
 Alpha  occ. eigenvalues --  -10.28584 -10.25861 -10.25380 -10.25338 -10.24791
 Alpha  occ. eigenvalues --   -1.21648  -1.09451  -1.08085  -1.07730  -1.06402
 Alpha  occ. eigenvalues --   -0.87090  -0.85642  -0.77841  -0.75053  -0.73730
 Alpha  occ. eigenvalues --   -0.71484  -0.69214  -0.67903  -0.66097  -0.62281
 Alpha  occ. eigenvalues --   -0.59622  -0.58686  -0.56541  -0.54188  -0.54082
 Alpha  occ. eigenvalues --   -0.52289  -0.51712  -0.51186  -0.50524  -0.48962
 Alpha  occ. eigenvalues --   -0.48416  -0.47808  -0.46925  -0.45906  -0.45267
 Alpha  occ. eigenvalues --   -0.44044  -0.43637  -0.42777  -0.41746  -0.40578
 Alpha  occ. eigenvalues --   -0.40072  -0.36953  -0.36594  -0.35910  -0.34563
 Alpha  occ. eigenvalues --   -0.31273  -0.31084  -0.30161  -0.28545
 Alpha virt. eigenvalues --   -0.14979  -0.00267   0.04671   0.05304   0.05592
 Alpha virt. eigenvalues --    0.06609   0.08070   0.08494   0.09756   0.10283
 Alpha virt. eigenvalues --    0.10866   0.12213   0.12786   0.13023   0.13206

 Mulliken charges:
               1
     1  C    0.103323
     2  C    0.033654
     3  C    0.281185
     4  C    0.030027
     5  C    0.112572
     6  H    0.280003
     7  H    0.266932
     8  H    0.178138
     9  H    0.243258
    10  H    0.194210
    11  O   -0.302592
    12  O   -0.468345
    13  O   -0.484081
    14  O   -0.489559
    15  C   -0.033654
    16  H    0.188916
    17  H    0.185865
    18  O   -0.488821
    19  C   -0.241538
    20  H    0.180607
    21  H    0.158959
    22  H    0.196653
    23  C   -0.221716
    24  H    0.170147
    25  H    0.159325
    26  H    0.180611
    27  C   -0.229547
    28  H    0.167016
    29  H    0.158773
    30  H    0.188633
    31  C   -0.214269
    32  H    0.164281
    33  H    0.165569
    34  H    0.185466
 Sum of Mulliken charges =   1.00000

 Dipole moment (field-independent basis, Debye):
    X=              3.1489    Y=             -0.7810    Z=             -3.5846  Tot=              4.8348
 Quadrupole moment (field-independent basis, Debye-Ang):
   XX=            -58.8691   YY=            -68.6302   ZZ=            -81.4260
   XY=              0.9274   XZ=              4.3909   YZ=              6.8416

  Exact polarizability: 155.484   6.785 150.009  -5.277   3.684 125.414
 Approx polarizability: 165.987   8.123 164.444  -8.065   0.275 155.593

                      1                      2                      3
                      A                      A                      A
 Frequencies --     41.8248                47.0603                54.2017
 Red. masses --      3.1504                 3.7308                 3.3584
 Frc consts  --      0.0032                 0.0049                 0.0058
 IR Inten    --      1.4305                 0.4410                 2.8605

                      4                      5                      6
                      A                      A                      A
 Frequencies --     91.2356                96.2694                96.5986
 Red. masses --      2.4402                 2.3206                 2.6029
 Frc consts  --      0.0120                 0.0127                 0.0143
 IR Inten    --      1.9322                 6.1961                 1.3851

                      7                      8                      9
                      A                      A                      A
 Frequencies --    106.0663               141.4694               152.8390
 Red. masses --      3.0796                 2.0081                 2.4839
 Frc consts  --      0.0204                 0.0237                 0.0342
 IR Inten    --      6.5942                 5.8212                 1.7723

                     10                     11                     12
                      A                      A                      A
 Frequencies --    171.8680               184.8091               201.2953
 Red. masses --      1.2153                 1.1660                 1.5221
 Frc consts  --      0.0212                 0.0235                 0.0363
 IR Inten    --      0.0912                 0.4167                 7.5715

                     13                     14                     15
                      A                      A                      A
 Frequencies --    214.4288               229.8908               262.6455
 Red. masses --      1.7207                 3.2165                 2.8164
 Frc consts  --      0.0466                 0.1002                 0.1145
 IR Inten    --     10.0523                 7.0957                 1.0904

                     16                     17                     18
                      A                      A                      A
 Frequencies --    283.8008               298.6381               313.4613
 Red. masses --      3.4299                 3.7302                 5.3388
 Frc consts  --      0.1628                 0.1960                 0.3091
 IR Inten    --     11.8611                 3.8284                 8.5798

                     19                     20                     21
                      A                      A                      A
 Frequencies --    343.7891               373.2184               394.8492
 Red. masses --      3.6410                 4.4656                 3.7735
 Frc consts  --      0.2535                 0.3665                 0.3466
 IR Inten    --     13.9869                 1.6768                 5.7636

                     22                     23                     24
                      A                      A                      A
 Frequencies --    430.8604               489.9329               496.5200
 Red. masses --      4.1723                 3.6362                 4.0627
 Frc consts  --      0.4564                 0.5142                 0.5901
 IR Inten    --      8.3198                13.7987                14.7056

                     25                     26                     27
                      A                      A                      A
 Frequencies --    539.2665               607.8550               658.1967
 Red. masses --      4.2135                 2.8089                 4.7241
 Frc consts  --      0.7219                 0.6115                 1.2058
 IR Inten    --      5.4538                15.8322                20.1127

                     28                     29                     30
                      A                      A                      A
 Frequencies --    713.1473               775.1282               868.6415
 Red. masses --      5.0986                 4.4437                 2.1365
 Frc consts  --      1.5278                 1.5730                 0.9498
 IR Inten    --     55.4920                26.5925                41.2107

                     31                     32                     33
                      A                      A                      A
 Frequencies --    897.5704               942.9403               961.1002
 Red. masses --      3.0434                 3.2108                 2.8419
 Frc consts  --      1.4446                 1.6820                 1.5467
 IR Inten    --      2.3240                36.4875                 6.8554

                     34                     35                     36
                      A                      A                      A
 Frequencies --    980.5335              1014.8878              1036.7046
 Red. masses --      3.6845                 4.9675                 3.8421
 Frc consts  --      2.0871                 3.0145                 2.4329
 IR Inten    --     31.3759                24.5339                86.9874

                     37                     38                     39
                      A                      A                      A
 Frequencies --   1066.7933              1084.4468              1103.1547
 Red. masses --      2.9680                 2.7355                 2.1596
 Frc consts  --      1.9901                 1.8954                 1.5485
 IR Inten    --     51.4435                57.3569                30.1052

                     40                     41                     42
                      A                      A                      A
 Frequencies --   1108.6920              1140.3035              1153.7442
 Red. masses --      3.0756                 4.8324                 4.2657
 Frc consts  --      2.2275                 3.7022                 3.3455
 IR Inten    --     93.4630               234.3569               189.6423

                     43                     44                     45
                      A                      A                      A
 Frequencies --   1159.6146              1171.7875              1186.1017
 Red. masses --      3.3754                 1.8286                 1.4112
 Frc consts  --      2.6742                 1.4793                 1.1697
 IR Inten    --    106.7368                62.7639                17.4512

                     46                     47                     48
                      A                      A                      A
 Frequencies --   1187.0548              1189.3192              1190.0294
 Red. masses --      1.3140                 1.2883                 1.3071
 Frc consts  --      1.0909                 1.0737                 1.0906
 IR Inten    --     16.4562                12.4598                 9.5305

                     49                     50                     51
                      A                      A                      A
 Frequencies --   1223.6182              1224.0443              1228.8962
 Red. masses --      1.5673                 1.5723                 1.8636
 Frc consts  --      1.3826                 1.3880                 1.6582
 IR Inten    --      1.5788                50.5191                82.5942

                     52                     53                     54
                      A                      A                      A
 Frequencies --   1237.1734              1258.3395              1269.7528
 Red. masses --      1.8820                 1.5846                 1.1359
 Frc consts  --      1.6972                 1.4783                 1.0790
 IR Inten    --     58.2543                21.2727                19.7913

                     55                     56                     57
                      A                      A                      A
 Frequencies --   1301.8380              1318.6835              1326.3774
 Red. masses --      1.2963                 1.2141                 1.4592
 Frc consts  --      1.2944                 1.2439                 1.5125
 IR Inten    --     14.7570                21.3775                 2.9278

                     58                     59                     60
                      A                      A                      A
 Frequencies --   1351.5850              1373.6631              1405.9750
 Red. masses --      1.2724                 1.2570                 1.3205
 Frc consts  --      1.3694                 1.3975                 1.5380
 IR Inten    --      2.5925                35.1193                10.5834

                     61                     62                     63
                      A                      A                      A
 Frequencies --   1416.8307              1423.2610              1434.2025
 Red. masses --      1.3681                 1.2953                 1.3147
 Frc consts  --      1.6181                 1.5459                 1.5933
 IR Inten    --     38.9528                55.3017                11.4117

                     64                     65                     66
                      A                      A                      A
 Frequencies --   1495.3535              1497.1372              1498.3797
 Red. masses --      1.1185                 1.1166                 1.1367
 Frc consts  --      1.4736                 1.4746                 1.5036
 IR Inten    --      3.8918                 3.4943                 3.6494

                     67                     68                     69
                      A                      A                      A
 Frequencies --   1499.0576              1506.7012              1508.2129
 Red. masses --      1.1195                 1.0714                 1.0462
 Frc consts  --      1.4821                 1.4331                 1.4022
 IR Inten    --      2.9306                 7.2215                10.5046

                     70                     71                     72
                      A                      A                      A
 Frequencies --   1512.6568              1518.9000              1522.5425
 Red. masses --      1.0783                 1.0613                 1.0644
 Frc consts  --      1.4536                 1.4427                 1.4537
 IR Inten    --      3.9172                16.6267                 5.6607

                     73                     74                     75
                      A                      A                      A
 Frequencies --   1526.9165              1533.3495              1536.7169
 Red. masses --      1.0627                 1.0607                 1.0564
 Frc consts  --      1.4598                 1.4694                 1.4698
 IR Inten    --     15.1053                20.4230                16.6579

                     76                     77                     78
                      A                      A                      A
 Frequencies --   1538.7449              1651.4878              3014.8005
 Red. masses --      1.0915                 6.2684                 1.0781
 Frc consts  --      1.5226                10.0730                 5.7732
 IR Inten    --      6.5000               185.0558                34.9885

                     79                     80                     81
                      A                      A                      A
 Frequencies --   3016.3477              3026.4519              3029.1581
 Red. masses --      1.0574                 1.0359                 1.0441
 Frc consts  --      5.6681                 5.5905                 5.6444
 IR Inten    --     18.1979                57.5849                51.4782

                     82                     83                     84
                      A                      A                      A
 Frequencies --   3033.6700              3039.4156              3042.0627
 Red. masses --      1.0355                 1.0726                 1.0470
 Frc consts  --      5.6147                 5.8382                 5.7089
 IR Inten    --     68.7380                13.1959                43.4865

                     85                     86                     87
                      A                      A                      A
 Frequencies --   3055.4801              3058.6942              3086.2446
 Red. masses --      1.0849                 1.1041                 1.1068
 Frc consts  --      5.9675                 6.0861                 6.2111
 IR Inten    --     19.4309                47.0707                51.0366

                     88                     89                     90
                      A                      A                      A
 Frequencies --   3093.9325              3113.8862              3119.9253
 Red. masses --      1.1074                 1.0959                 1.0979
 Frc consts  --      6.2459                 6.2606                 6.2966
 IR Inten    --     46.8323                42.7825                49.1779

                     91                     92                     93
                      A                      A                      A
 Frequencies --   3165.8186              3166.5554              3167.0872
 Red. masses --      1.0986                 1.1049                 1.0899
 Frc consts  --      6.4872                 6.5275                 6.4413
 IR Inten    --     20.5015                25.9200                 2.5908

                     94                     95                     96
                      A                      A                      A
 Frequencies --   3169.2850              3176.7886              3193.2847
 Red. masses --      1.1011                 1.1021                 1.0943
 Frc consts  --      6.5161                 6.5530                 6.5743
 IR Inten    --     19.4853                19.8392                 1.7819

 - Thermochemistry -
 -------------------
 Temperature   298.150 Kelvin.  Pressure   1.00000 Atm.
 Atom     1 has atomic number  6 and mass  12.00000

 Molecular mass:   219.12325 amu.
 Principal axes and moments of inertia in atomic units:
                           1         2         3
     Eigenvalues --  2801.317393468.208044816.14545
           X            0.99981  -0.00710   0.01798
           Y            0.00702   0.99997   0.00433
           Z           -0.01801  -0.00421   0.99983
 This molecule is an asymmetric top.
 Rotational symmetry number  1.
 Warning -- assumption of classical behavior for rotation
           may cause significant error
 Rotational temperatures (Kelvin)      0.03092     0.02497     0.01798
 Rotational constants (GHZ):           0.64425     0.52037     0.37473
 Zero-point vibrational energy     772571.5 (Joules/Mol)
                                  184.64903 (Kcal/Mol)
 Warning -- explicit consideration of  26 degrees of freedom as
           vibrations may cause significant error
 Vibrational temperatures:     60.18    67.71    77.98   131.27   138.51
          (Kelvin)            138.98   152.61   203.54   219.90   247.28
                              265.90   289.62   308.52   330.76   377.89
                              408.33   429.67   451.00   494.64   536.98
                              568.10   619.91   704.90   714.38   775.88
                              874.57   947.00  1026.06  1115.24  1249.78
                             1291.40  1356.68  1382.81  1410.77  1460.20
                             1491.59  1534.88  1560.28  1587.19  1595.16
                             1640.64  1659.98  1668.43  1685.94  1706.54
                             1707.91  1711.16  1712.19  1760.51  1761.13
                             1768.11  1780.02  1810.47  1826.89  1873.05
                             1897.29  1908.36  1944.63  1976.39  2022.88
                             2038.50  2047.76  2063.50  2151.48  2154.05
                             2155.83  2156.81  2167.81  2169.98  2176.38
                             2185.36  2190.60  2196.89  2206.15  2210.99
                             2213.91  2376.12  4337.63  4339.85  4354.39
                             4358.28  4364.77  4373.04  4376.85  4396.15
                             4400.78  4440.42  4451.48  4480.19  4488.88
                             4554.91  4555.97  4556.73  4559.89  4570.69
                             4594.42

 Zero-point correction=                           0.294257 (Hartree/Particle)
 Thermal correction to Energy=                    0.311625
 Thermal correction to Enthalpy=                  0.312569
 Thermal correction to Gibbs Free Energy=         0.248707
 Sum of electronic and zero-point Energies=           -768.035840
 Sum of electronic and thermal Energies=              -768.018472
 Sum of electronic and thermal Enthalpies=            -768.017528
 Sum of electronic and thermal Free Energies=         -768.081391

                     E (Thermal)             CV                S
                      KCal/Mol        Cal/Mol-Kelvin    Cal/Mol-Kelvin
 Total                  195.548             61.655            134.410
 Electronic               0.000              0.000              0.000
 Translational            0.889              2.981             42.056
 Rotational               0.889              2.981             32.215
 Vibrational            193.770             55.693             60.139
 Vibration     1          0.594              1.980              5.171
 Vibration     2          0.595              1.979              4.937
 Vibration     3          0.596              1.976              4.658
 Vibration     4          0.602              1.955              3.633
 Vibration     5          0.603              1.952              3.528
 Vibration     6          0.603              1.952              3.522
 Vibration     7          0.605              1.944              3.340
 Vibration     8          0.615              1.912              2.784
 Vibration     9          0.619              1.900              2.637
 Vibration    10          0.626              1.877              2.415
 Vibration    11          0.631              1.861              2.279
 Vibration    12          0.638              1.838              2.121
 Vibration    13          0.644              1.819              2.006
 Vibration    14          0.652              1.795              1.880
 Vibration    15          0.670              1.741              1.644
 Vibration    16          0.682              1.704              1.511
 Vibration    17          0.692              1.676              1.425
 Vibration    18          0.701              1.648              1.344
 Vibration    19          0.723              1.588              1.195
 Vibration    20          0.745              1.527              1.067
 Vibration    21          0.762              1.481              0.982
 Vibration    22          0.792              1.403              0.856
 Vibration    23          0.846              1.272              0.684
 Vibration    24          0.852              1.258              0.667
 Vibration    25          0.894              1.163              0.567
 Vibration    26          0.967              1.015              0.436

 Optimization completed.
    -- Stationary point found.
 Normal termination of Gaussian 16 at Fri May 24 08:49:39 2019.
