 Gaussian 16, Revision A.03,
 Gaussian 16:  ES64L-G16RevA.03 25-Dec-2016

 -------------------------------------------------------------------
 #p b3lyp 6-31g* opt freq=noraman scrf=(pcm,solvent=tetrahydrofuran)
 -------------------------------------------------------------------

 -----
 title
 -----
 Symbolic Z-matrix:
 Charge =  1 Multiplicity = 1

 SCF Done:  E(RB3LYP) =  -768.320571600     A.U. after   14 cycles
 Optimization completed.
    -- Stationary point found.
 Normal termination of Gaussian 16 at Fri May 24 08:33:36 2019.

 --------------------------------------------------------------------
 #P Geom=AllCheck Guess=TCheck SCRF=Check GenChk RB3LYP/6-31G(d) Freq
 --------------------------------------------------------------------

 Structure from the checkpoint file:  "/scratch/Gau-46646.chk"
 -----
 title
 -----
 Charge =  1 Multiplicity = 1

                         Standard orientation:
 ---------------------------------------------------------------------
 Center     Atomic      Atomic             Coordinates (Angstroms)
 Number     Number       Type             X           Y           Z
 ---------------------------------------------------------------------
      1          6           0        1.555031   -0.351722   -0.300927
      2          6           0        1.481583    1.183466   -0.012893
      3          6           0        0.567914    1.447073    1.143809
      4          6           0       -0.984911   -0.083543    0.141539
      5          6           0        0.177843   -1.058999   -0.109313
      6          1           0        0.791743    2.118297    1.974486
      7          1           0        2.482957    1.582175    0.174782
      8          1           0        1.795406   -0.402163   -1.366745
      9          1           0       -1.168176    0.528677   -0.741461
     10          1           0        0.245451   -1.738873    0.752106
     11          8           0       -0.566391    0.907322    1.204077
     12          8           0        0.863272    1.782361   -1.143025
     13          8           0        2.626387   -0.972792    0.365169
     14          8           0       -0.212747   -1.769365   -1.263525
     15          6           0       -2.251661   -0.731212    0.684583
     16          1           0       -2.040044   -1.173870    1.664015
     17          1           0       -2.522289   -1.539525   -0.008250
     18          8           0       -3.295817    0.195738    0.862419
     19          6           0        1.200557    3.165106   -1.368968
     20          1           0        0.749664    3.417544   -2.329049
     21          1           0        0.791118    3.819100   -0.592099
     22          1           0        2.287518    3.287193   -1.425582
     23          6           0        2.612129   -0.941032    1.787995
     24          1           0        2.615362    0.092939    2.172617
     25          1           0        1.758269   -1.478950    2.217289
     26          1           0        3.533775   -1.424562    2.114712
     27          6           0        0.436586   -3.035295   -1.414621
     28          1           0        0.226894   -3.687272   -0.556470
     29          1           0        1.521849   -2.921939   -1.523750
     30          1           0        0.025892   -3.480874   -2.321785
     31          6           0       -4.060314    0.451315   -0.313320
     32          1           0       -4.509785   -0.473282   -0.700138
     33          1           0       -4.851898    1.145020   -0.023504
     34          1           0       -3.459879    0.913319   -1.109390
 ---------------------------------------------------------------------

 SCF Done:  E(RB3LYP) =  -768.320571600     A.U. after    1 cycles

 The electronic state is 1-A.
 Alpha  occ. eigenvalues --  -19.32973 -19.22260 -19.20105 -19.19369 -19.18166
 Alpha  occ. eigenvalues --  -10.39626 -10.31852 -10.31512 -10.29730 -10.29696
 Alpha  occ. eigenvalues --  -10.27396 -10.26575 -10.26493 -10.25138 -10.24634
 Alpha  occ. eigenvalues --   -1.21782  -1.09981  -1.08546  -1.07319  -1.06338
 Alpha  occ. eigenvalues --   -0.86939  -0.85257  -0.77170  -0.75505  -0.74363
 Alpha  occ. eigenvalues --   -0.71528  -0.69467  -0.68222  -0.65470  -0.62119
 Alpha  occ. eigenvalues --   -0.61112  -0.58546  -0.57124  -0.54734  -0.53141
 Alpha  occ. eigenvalues --   -0.52423  -0.51160  -0.50405  -0.50120  -0.49886
 Alpha  occ. eigenvalues --   -0.49221  -0.48139  -0.47395  -0.46237  -0.45667
 Alpha  occ. eigenvalues --   -0.44215  -0.43563  -0.42518  -0.41057  -0.40840
 Alpha  occ. eigenvalues --   -0.40181  -0.37756  -0.36320  -0.35831  -0.34751
 Alpha  occ. eigenvalues --   -0.33137  -0.31655  -0.29294  -0.28098
 Alpha virt. eigenvalues --   -0.16141   0.00810   0.03846   0.05708   0.06245
 Alpha virt. eigenvalues --    0.06967   0.08050   0.08458   0.08910   0.10008
 Alpha virt. eigenvalues --    0.10727   0.11052   0.12324   0.12411   0.13076

 Mulliken charges:
               1
     1  C    0.108145
     2  C    0.010072
     3  C    0.284509
     4  C    0.042755
     5  C    0.098221
     6  H    0.283887
     7  H    0.220189
     8  H    0.217778
     9  H    0.243627
    10  H    0.177061
    11  O   -0.297616
    12  O   -0.467307
    13  O   -0.463862
    14  O   -0.488637
    15  C   -0.044332
    16  H    0.185282
    17  H    0.186988
    18  O   -0.470648
    19  C   -0.231066
    20  H    0.202364
    21  H    0.176564
    22  H    0.182442
    23  C   -0.248497
    24  H    0.152219
    25  H    0.173236
    26  H    0.204936
    27  C   -0.226530
    28  H    0.163448
    29  H    0.169173
    30  H    0.185983
    31  C   -0.224669
    32  H    0.160758
    33  H    0.180552
    34  H    0.152975
 Sum of Mulliken charges =   1.00000

 Dipole moment (field-independent basis, Debye):
    X=              3.0241    Y=              3.4910    Z=              2.3783  Tot=              5.1951
 Quadrupole moment (field-independent basis, Debye-Ang):
   XX=            -74.9539   YY=            -61.0130   ZZ=            -78.6035
   XY=              7.5876   XZ=              9.5942   YZ=             -0.1972

  Exact polarizability: 152.898   0.570 150.399   6.367  -1.121 132.343
 Approx polarizability: 169.405  -1.771 163.077   3.594   2.275 162.313

                      1                      2                      3
                      A                      A                      A
 Frequencies --     40.9119                61.7228                76.3629
 Red. masses --      4.1786                 3.2388                 3.8342
 Frc consts  --      0.0041                 0.0073                 0.0132
 IR Inten    --      1.0384                 1.6674                 2.3713

                      4                      5                      6
                      A                      A                      A
 Frequencies --     83.2398                99.1492               124.0740
 Red. masses --      2.6445                 2.8472                 1.9147
 Frc consts  --      0.0108                 0.0165                 0.0174
 IR Inten    --      4.3342                 4.2703                 4.6932

                      7                      8                      9
                      A                      A                      A
 Frequencies --    142.4154               159.2688               162.4453
 Red. masses --      2.4069                 2.0561                 1.8335
 Frc consts  --      0.0288                 0.0307                 0.0285
 IR Inten    --      0.7883                 0.6641                 2.3121

                     10                     11                     12
                      A                      A                      A
 Frequencies --    179.6101               185.6394               209.0237
 Red. masses --      1.2622                 1.9821                 1.8314
 Frc consts  --      0.0240                 0.0402                 0.0471
 IR Inten    --      1.0739                 1.7802                13.4228

                     13                     14                     15
                      A                      A                      A
 Frequencies --    222.4732               257.8697               262.3028
 Red. masses --      2.4822                 1.8071                 2.4460
 Frc consts  --      0.0724                 0.0708                 0.0992
 IR Inten    --      0.3014                 8.9017                27.6260

                     16                     17                     18
                      A                      A                      A
 Frequencies --    297.6223               312.2407               327.0621
 Red. masses --      4.1011                 3.2660                 3.7117
 Frc consts  --      0.2140                 0.1876                 0.2339
 IR Inten    --      4.5964                10.6263                 6.8388

                     19                     20                     21
                      A                      A                      A
 Frequencies --    333.5699               381.7759               415.4580
 Red. masses --      3.2026                 4.3591                 3.7261
 Frc consts  --      0.2100                 0.3743                 0.3789
 IR Inten    --      9.4887                 1.5289                 7.3067

                     22                     23                     24
                      A                      A                      A
 Frequencies --    444.2838               466.1069               499.0549
 Red. masses --      2.3407                 4.1145                 6.1384
 Frc consts  --      0.2722                 0.5267                 0.9008
 IR Inten    --     10.8300                25.8742                 5.1646

                     25                     26                     27
                      A                      A                      A
 Frequencies --    513.3097               579.3321               633.7519
 Red. masses --      3.3553                 3.5692                 3.9246
 Frc consts  --      0.5209                 0.7058                 0.9287
 IR Inten    --     20.5122                20.6139                34.6393

                     28                     29                     30
                      A                      A                      A
 Frequencies --    725.5168               839.4747               891.7779
 Red. masses --      4.1707                 4.5894                 4.1389
 Frc consts  --      1.2935                 1.9056                 1.9393
 IR Inten    --     43.0983                46.3083                32.1170

                     31                     32                     33
                      A                      A                      A
 Frequencies --    916.0084               938.1680               944.6552
 Red. masses --      3.0056                 4.0308                 4.0049
 Frc consts  --      1.4858                 2.0903                 2.1057
 IR Inten    --     46.8003                51.9257                45.1572

                     34                     35                     36
                      A                      A                      A
 Frequencies --    966.4899               999.3311              1016.9311
 Red. masses --      3.4069                 3.5194                 3.4680
 Frc consts  --      1.8750                 2.0708                 2.1130
 IR Inten    --     21.3593                24.0329                32.0603

                     37                     38                     39
                      A                      A                      A
 Frequencies --   1032.1611              1087.7284              1101.6878
 Red. masses --      2.2856                 3.3771                 2.8731
 Frc consts  --      1.4346                 2.3541                 2.0545
 IR Inten    --     15.8183                71.5993                37.2667

                     40                     41                     42
                      A                      A                      A
 Frequencies --   1108.7153              1131.7209              1143.5755
 Red. masses --      4.2958                 2.5262                 3.9995
 Frc consts  --      3.1112                 1.9063                 3.0817
 IR Inten    --    175.5380                85.3403               141.5410

                     43                     44                     45
                      A                      A                      A
 Frequencies --   1147.9802              1165.7826              1181.3693
 Red. masses --      4.0213                 3.8459                 1.2653
 Frc consts  --      3.1224                 3.0795                 1.0404
 IR Inten    --    201.4216                31.9134                 4.5639

                     46                     47                     48
                      A                      A                      A
 Frequencies --   1190.0977              1191.3429              1191.4774
 Red. masses --      1.2971                 1.2747                 1.2934
 Frc consts  --      1.0824                 1.0659                 1.0818
 IR Inten    --      7.8674                 5.9781                19.8605

                     49                     50                     51
                      A                      A                      A
 Frequencies --   1213.7628              1228.8055              1233.6514
 Red. masses --      1.4550                 1.5665                 1.6305
 Frc consts  --      1.2630                 1.3936                 1.4620
 IR Inten    --      4.5737                13.0114               107.0653

                     52                     53                     54
                      A                      A                      A
 Frequencies --   1236.6009              1248.9839              1276.4743
 Red. masses --      1.6383                 1.3413                 1.3236
 Frc consts  --      1.4761                 1.2328                 1.2707
 IR Inten    --     18.3840                24.8146                 8.7395

                     55                     56                     57
                      A                      A                      A
 Frequencies --   1318.6995              1344.0903              1347.7747
 Red. masses --      1.2634                 1.2396                 1.1555
 Frc consts  --      1.2944                 1.3194                 1.2367
 IR Inten    --     24.2354                 1.1971                32.1566

                     58                     59                     60
                      A                      A                      A
 Frequencies --   1361.2650              1385.1134              1417.2423
 Red. masses --      1.2458                 1.2413                 1.4259
 Frc consts  --      1.3601                 1.4032                 1.6874
 IR Inten    --      4.0205                 7.6112                 6.7421

                     61                     62                     63
                      A                      A                      A
 Frequencies --   1420.0882              1427.0426              1443.7719
 Red. masses --      1.2901                 1.3709                 1.2720
 Frc consts  --      1.5329                 1.6449                 1.5622
 IR Inten    --     29.5225                24.6894                30.7192

                     64                     65                     66
                      A                      A                      A
 Frequencies --   1491.6362              1495.7586              1499.9007
 Red. masses --      1.1183                 1.0993                 1.1219
 Frc consts  --      1.4659                 1.4491                 1.4871
 IR Inten    --      4.1508                 0.3693                 2.2960

                     67                     68                     69
                      A                      A                      A
 Frequencies --   1507.0591              1511.1381              1513.4241
 Red. masses --      1.0995                 1.0643                 1.0743
 Frc consts  --      1.4713                 1.4319                 1.4497
 IR Inten    --      4.3317                17.2566                 7.2531

                     70                     71                     72
                      A                      A                      A
 Frequencies --   1513.8961              1519.6687              1526.1332
 Red. masses --      1.0614                 1.0636                 1.0538
 Frc consts  --      1.4333                 1.4472                 1.4461
 IR Inten    --     14.1274                 2.9900                13.8895

                     73                     74                     75
                      A                      A                      A
 Frequencies --   1528.4677              1530.3821              1531.3869
 Red. masses --      1.0596                 1.0563                 1.0886
 Frc consts  --      1.4585                 1.4576                 1.5041
 IR Inten    --      9.5259                17.0375                12.9420

                     76                     77                     78
                      A                      A                      A
 Frequencies --   1532.4025              1635.0749              2994.3261
 Red. masses --      1.0813                 6.1167                 1.0504
 Frc consts  --      1.4961                 9.6348                 5.5489
 IR Inten    --     18.1356               183.4842                75.8247

                     79                     80                     81
                      A                      A                      A
 Frequencies --   3021.5718              3030.6370              3036.4504
 Red. masses --      1.0353                 1.0833                 1.0344
 Frc consts  --      5.5691                 5.8624                 5.6190
 IR Inten    --     53.2563                27.4639                53.7669

                     82                     83                     84
                      A                      A                      A
 Frequencies --   3051.9216              3056.8670              3077.5931
 Red. masses --      1.0604                 1.0320                 1.1058
 Frc consts  --      5.8192                 5.6818                 6.1709
 IR Inten    --     26.3423                56.3652                67.2814

                     85                     86                     87
                      A                      A                      A
 Frequencies --   3082.9413              3100.8406              3109.4052
 Red. masses --      1.0874                 1.1059                 1.0861
 Frc consts  --      6.0895                 6.2651                 6.1870
 IR Inten    --     66.1219                43.0968                 7.3423

                     88                     89                     90
                      A                      A                      A
 Frequencies --   3111.5615              3111.8131              3130.5166
 Red. masses --      1.1046                 1.0880                 1.1076
 Frc consts  --      6.3009                 6.2073                 6.3953
 IR Inten    --     13.5383                10.9509                25.7369

                     91                     92                     93
                      A                      A                      A
 Frequencies --   3157.5767              3166.7915              3169.2049
 Red. masses --      1.0997                 1.0865                 1.1017
 Frc consts  --      6.4599                 6.4195                 6.5194
 IR Inten    --     29.5908                 0.3797                24.0756

                     94                     95                     96
                      A                      A                      A
 Frequencies --   3169.7161              3183.1913              3201.4289
 Red. masses --      1.0984                 1.1036                 1.0946
 Frc consts  --      6.5021                 6.5883                 6.6099
 IR Inten    --     15.5187                 9.4547                 2.2587

 - Thermochemistry -
 -------------------
 Temperature   298.150 Kelvin.  Pressure   1.00000 Atm.
 Atom     1 has atomic number  6 and mass  12.00000

 Molecular mass:   219.12325 amu.
 Principal axes and moments of inertia in atomic units:
                           1         2         3
     Eigenvalues --  2727.076383846.741544904.35173
           X            0.99968   0.01303   0.02166
           Y           -0.01262   0.99974  -0.01893
           Z           -0.02191   0.01865   0.99959
 This molecule is an asymmetric top.
 Rotational symmetry number  1.
 Warning -- assumption of classical behavior for rotation
           may cause significant error
 Rotational temperatures (Kelvin)      0.03176     0.02252     0.01766
 Rotational constants (GHZ):           0.66179     0.46916     0.36799
 Zero-point vibrational energy     775097.1 (Joules/Mol)
                                  185.25266 (Kcal/Mol)
 Warning -- explicit consideration of  26 degrees of freedom as
           vibrations may cause significant error
 Vibrational temperatures:     58.86    88.81   109.87   119.76   142.65
          (Kelvin)            178.51   204.90   229.15   233.72   258.42
                              267.09   300.74   320.09   371.02   377.40
                              428.21   449.24   470.57   479.93   549.29
                              597.75   639.23   670.62   718.03   738.54
                              833.53   911.83  1043.86  1207.82  1283.07
                             1317.93  1349.81  1359.15  1390.56  1437.81
                             1463.14  1485.05  1565.00  1585.08  1595.19
                             1628.29  1645.35  1651.69  1677.30  1699.73
                             1712.29  1714.08  1714.27  1746.33  1767.98
                             1774.95  1779.19  1797.01  1836.56  1897.31
                             1933.85  1939.15  1958.56  1992.87  2039.10
                             2043.19  2053.20  2077.27  2146.13  2152.06
                             2158.02  2168.32  2174.19  2177.48  2178.16
                             2186.46  2195.77  2199.12  2201.88  2203.32
                             2204.79  2352.51  4308.17  4347.37  4360.41
                             4368.77  4391.03  4398.15  4427.97  4435.66
                             4461.42  4473.74  4476.84  4477.21  4504.12
                             4543.05  4556.31  4559.78  4560.51  4579.90
                             4606.14

 Zero-point correction=                           0.295219 (Hartree/Particle)
 Thermal correction to Energy=                    0.312245
 Thermal correction to Enthalpy=                  0.313189
 Thermal correction to Gibbs Free Energy=         0.250729
 Sum of electronic and zero-point Energies=           -768.025353
 Sum of electronic and thermal Energies=              -768.008326
 Sum of electronic and thermal Enthalpies=            -768.007382
 Sum of electronic and thermal Free Energies=         -768.069842

                     E (Thermal)             CV                S
                      KCal/Mol        Cal/Mol-Kelvin    Cal/Mol-Kelvin
 Total                  195.937             61.449            131.458
 Electronic               0.000              0.000              0.000
 Translational            0.889              2.981             42.056
 Rotational               0.889              2.981             32.309
 Vibrational            194.159             55.487             57.093
 Vibration     1          0.594              1.981              5.214
 Vibration     2          0.597              1.973              4.401
 Vibration     3          0.599              1.965              3.982
 Vibration     4          0.600              1.961              3.813
 Vibration     5          0.604              1.950              3.471
 Vibration     6          0.610              1.929              3.036
 Vibration     7          0.616              1.911              2.771
 Vibration     8          0.621              1.892              2.558
 Vibration     9          0.623              1.888              2.521
 Vibration    10          0.629              1.867              2.332
 Vibration    11          0.632              1.859              2.271
 Vibration    12          0.642              1.827              2.052
 Vibration    13          0.648              1.807              1.939
 Vibration    14          0.667              1.749              1.676
 Vibration    15          0.670              1.742              1.646
 Vibration    16          0.691              1.678              1.430
 Vibration    17          0.701              1.650              1.350
 Vibration    18          0.711              1.621              1.275
 Vibration    19          0.715              1.608              1.243
 Vibration    20          0.751              1.509              1.032
 Vibration    21          0.779              1.437              0.908
 Vibration    22          0.804              1.374              0.813
 Vibration    23          0.823              1.325              0.749
 Vibration    24          0.855              1.252              0.660
 Vibration    25          0.868              1.221              0.626
 Vibration    26          0.936              1.076              0.487

 Optimization completed.
    -- Stationary point found.
 Normal termination of Gaussian 16 at Fri May 24 08:57:30 2019.
