 Gaussian 16, Revision A.03,
 Gaussian 16:  ES64L-G16RevA.03 25-Dec-2016

 -------------------------------------------------------------------
 #p b3lyp 6-31g* opt freq=noraman scrf=(pcm,solvent=tetrahydrofuran)
 -------------------------------------------------------------------

 -----
 title
 -----
 Symbolic Z-matrix:
 Charge =  1 Multiplicity = 1

 SCF Done:  E(RB3LYP) =  -768.325280382     A.U. after   13 cycles
 Optimization completed.
    -- Stationary point found.
 Normal termination of Gaussian 16 at Fri May 24 08:34:36 2019.

 --------------------------------------------------------------------
 #P Geom=AllCheck Guess=TCheck SCRF=Check GenChk RB3LYP/6-31G(d) Freq
 --------------------------------------------------------------------

 Structure from the checkpoint file:  "/scratch/Gau-44094.chk"
 -----
 title
 -----
 Charge =  1 Multiplicity = 1

                         Standard orientation:
 ---------------------------------------------------------------------
 Center     Atomic      Atomic             Coordinates (Angstroms)
 Number     Number       Type             X           Y           Z
 ---------------------------------------------------------------------
      1          6           0       -1.101539    0.395846   -0.002183
      2          6           0       -0.854858   -1.156051   -0.021796
      3          6           0       -0.064733   -1.457081   -1.244274
      4          6           0        1.300330    0.530951   -0.948250
      5          6           0        0.286127    1.060570    0.108053
      6          1           0       -0.263296   -2.344716   -1.848095
      7          1           0       -0.180149   -1.402856    0.816276
      8          1           0       -1.577252    0.682586   -0.944498
      9          1           0        1.427792    1.242402   -1.763151
     10          1           0        0.699205    0.809598    1.087926
     11          8           0        0.841580   -0.710131   -1.690493
     12          8           0       -1.965381   -1.986170    0.114615
     13          8           0       -2.014742    0.790875    0.978875
     14          8           0        0.279250    2.468856    0.080384
     15          6           0        2.639612    0.136300   -0.353329
     16          1           0        3.073945    1.041050    0.099656
     17          1           0        3.321774   -0.216271   -1.139807
     18          8           0        2.385151   -0.869539    0.602070
     19          6           0       -3.090620   -1.699437   -0.732407
     20          1           0       -2.816807   -1.722113   -1.795734
     21          1           0       -3.809937   -2.495308   -0.537936
     22          1           0       -3.535800   -0.733123   -0.480162
     23          6           0       -1.696996    0.516629    2.346862
     24          1           0       -0.818321    1.076507    2.684468
     25          1           0       -2.566620    0.845483    2.917298
     26          1           0       -1.546435   -0.555837    2.518484
     27          6           0       -0.496739    3.108452   -0.936675
     28          1           0       -0.240133    4.167352   -0.879780
     29          1           0       -0.253096    2.742250   -1.943165
     30          1           0       -1.569870    2.988193   -0.753374
     31          6           0        3.560486   -1.323841    1.271442
     32          1           0        3.242252   -2.097329    1.972069
     33          1           0        4.279354   -1.748445    0.558481
     34          1           0        4.040113   -0.504590    1.822780
 ---------------------------------------------------------------------

 SCF Done:  E(RB3LYP) =  -768.325280382     A.U. after    1 cycles

 The electronic state is 1-A.
 Alpha  occ. eigenvalues --  -19.32837 -19.20716 -19.19916 -19.19524 -19.19444
 Alpha  occ. eigenvalues --  -10.39498 -10.32288 -10.31764 -10.30137 -10.29642
 Alpha  occ. eigenvalues --  -10.28326 -10.25886 -10.25360 -10.25337 -10.25234
 Alpha  occ. eigenvalues --   -1.21539  -1.09808  -1.08248  -1.07555  -1.06698
 Alpha  occ. eigenvalues --   -0.87157  -0.85872  -0.77748  -0.75562  -0.74710
 Alpha  occ. eigenvalues --   -0.71877  -0.69626  -0.67682  -0.65707  -0.62191
 Alpha  occ. eigenvalues --   -0.60011  -0.58658  -0.56335  -0.54612  -0.54371
 Alpha  occ. eigenvalues --   -0.52807  -0.52166  -0.51245  -0.50573  -0.48942
 Alpha  occ. eigenvalues --   -0.48465  -0.47858  -0.46994  -0.46087  -0.45025
 Alpha  occ. eigenvalues --   -0.44072  -0.43318  -0.42845  -0.42275  -0.41664
 Alpha  occ. eigenvalues --   -0.40284  -0.37015  -0.36410  -0.35829  -0.34797
 Alpha  occ. eigenvalues --   -0.32480  -0.30746  -0.29908  -0.28745
 Alpha virt. eigenvalues --   -0.15043  -0.00292   0.04095   0.05553   0.05778
 Alpha virt. eigenvalues --    0.07294   0.07649   0.08326   0.09031   0.09893
 Alpha virt. eigenvalues --    0.11157   0.11918   0.12280   0.12915   0.13512

 Mulliken charges:
               1
     1  C    0.082309
     2  C    0.022102
     3  C    0.285741
     4  C    0.035031
     5  C    0.101185
     6  H    0.279738
     7  H    0.254571
     8  H    0.192461
     9  H    0.241991
    10  H    0.202712
    11  O   -0.301275
    12  O   -0.472769
    13  O   -0.465381
    14  O   -0.481337
    15  C   -0.034335
    16  H    0.192280
    17  H    0.185324
    18  O   -0.491573
    19  C   -0.244848
    20  H    0.160715
    21  H    0.197232
    22  H    0.187002
    23  C   -0.242663
    24  H    0.173005
    25  H    0.192334
    26  H    0.169782
    27  C   -0.241524
    28  H    0.190334
    29  H    0.156987
    30  H    0.175655
    31  C   -0.213008
    32  H    0.182501
    33  H    0.163041
    34  H    0.164680
 Sum of Mulliken charges =   1.00000

 Dipole moment (field-independent basis, Debye):
    X=              2.1421    Y=             -2.1746    Z=             -3.9407  Tot=              4.9846
 Quadrupole moment (field-independent basis, Debye-Ang):
   XX=            -64.6049   YY=            -77.5627   ZZ=            -72.5072
   XY=              0.1458   XZ=              3.6440   YZ=              0.3715

  Exact polarizability: 152.697   4.428 145.899  -6.934   3.104 134.670
 Approx polarizability: 167.397   4.664 167.495 -10.520   3.937 161.794

                      1                      2                      3
                      A                      A                      A
 Frequencies --     32.8529                60.6877                65.4974
 Red. masses --      4.3796                 2.8970                 2.6077
 Frc consts  --      0.0028                 0.0063                 0.0066
 IR Inten    --      1.0885                 1.2707                 4.5537

                      4                      5                      6
                      A                      A                      A
 Frequencies --     79.3749               105.6937               119.5786
 Red. masses --      3.2730                 2.8633                 2.3340
 Frc consts  --      0.0121                 0.0188                 0.0197
 IR Inten    --      1.9185                 4.7690                 4.7623

                      7                      8                      9
                      A                      A                      A
 Frequencies --    120.9909               158.7136               174.4898
 Red. masses --      2.9069                 3.1134                 2.7423
 Frc consts  --      0.0251                 0.0462                 0.0492
 IR Inten    --      6.4627                 1.3013                 9.5568

                     10                     11                     12
                      A                      A                      A
 Frequencies --    188.4011               215.6160               222.9749
 Red. masses --      1.5583                 1.3863                 1.3626
 Frc consts  --      0.0326                 0.0380                 0.0399
 IR Inten    --      0.4258                 2.4157                 0.7752

                     13                     14                     15
                      A                      A                      A
 Frequencies --    227.5456               251.5825               259.4822
 Red. masses --      1.4407                 2.1644                 2.8157
 Frc consts  --      0.0439                 0.0807                 0.1117
 IR Inten    --      7.8504                 9.3852                 7.8553

                     16                     17                     18
                      A                      A                      A
 Frequencies --    277.1581               297.4728               324.5785
 Red. masses --      2.6925                 3.0234                 3.5587
 Frc consts  --      0.1219                 0.1576                 0.2209
 IR Inten    --      5.6142                 2.1944                 4.4414

                     19                     20                     21
                      A                      A                      A
 Frequencies --    342.6725               352.4197               394.5615
 Red. masses --      4.1100                 3.5299                 4.1460
 Frc consts  --      0.2844                 0.2583                 0.3803
 IR Inten    --     12.2628                 2.9436                10.3195

                     22                     23                     24
                      A                      A                      A
 Frequencies --    451.6964               478.8351               532.3458
 Red. masses --      4.4598                 3.4395                 4.1256
 Frc consts  --      0.5361                 0.4646                 0.6888
 IR Inten    --      1.6024                19.5647                 4.3056

                     25                     26                     27
                      A                      A                      A
 Frequencies --    556.4649               621.4735               655.4447
 Red. masses --      5.0383                 3.0924                 4.0879
 Frc consts  --      0.9192                 0.7037                 1.0347
 IR Inten    --     19.7193                26.3237                19.4821

                     28                     29                     30
                      A                      A                      A
 Frequencies --    713.2864               752.2846               839.6563
 Red. masses --      4.7342                 4.1340                 2.7368
 Frc consts  --      1.4191                 1.3784                 1.1368
 IR Inten    --     81.4477                51.8253                51.5988

                     31                     32                     33
                      A                      A                      A
 Frequencies --    906.2491               922.8392               949.5069
 Red. masses --      3.2029                 3.9389                 3.4955
 Frc consts  --      1.5498                 1.9764                 1.8568
 IR Inten    --      3.0980                14.2518                 3.4334

                     34                     35                     36
                      A                      A                      A
 Frequencies --    967.7929              1000.2912              1026.4396
 Red. masses --      3.7078                 2.6354                 4.1084
 Frc consts  --      2.0461                 1.5536                 2.5503
 IR Inten    --     71.9150                33.5496                68.4744

                     37                     38                     39
                      A                      A                      A
 Frequencies --   1046.2679              1063.8893              1105.8101
 Red. masses --      2.6946                 3.1746                 2.1021
 Frc consts  --      1.7379                 2.1171                 1.5145
 IR Inten    --     48.4100                70.9327                 0.1796

                     40                     41                     42
                      A                      A                      A
 Frequencies --   1112.2919              1141.2387              1158.0926
 Red. masses --      3.5003                 3.5684                 3.3247
 Frc consts  --      2.5515                 2.7383                 2.6272
 IR Inten    --     39.3750               240.2206               105.9292

                     43                     44                     45
                      A                      A                      A
 Frequencies --   1175.7685              1176.4018              1180.0913
 Red. masses --      1.6439                 2.1340                 1.4950
 Frc consts  --      1.3390                 1.7400                 1.2267
 IR Inten    --     62.4650                85.5954                27.6539

                     46                     47                     48
                      A                      A                      A
 Frequencies --   1187.1543              1190.1667              1199.2577
 Red. masses --      1.3442                 1.3467                 2.0925
 Frc consts  --      1.1162                 1.1239                 1.7732
 IR Inten    --      7.6933                 4.6608                90.0818

                     49                     50                     51
                      A                      A                      A
 Frequencies --   1225.2840              1229.7207              1232.0080
 Red. masses --      1.6370                 1.6952                 1.6343
 Frc consts  --      1.4480                 1.5103                 1.4615
 IR Inten    --     62.7701                77.0980                32.5665

                     52                     53                     54
                      A                      A                      A
 Frequencies --   1239.2156              1252.1036              1269.7216
 Red. masses --      1.7787                 1.5689                 1.1191
 Frc consts  --      1.6094                 1.4492                 1.0631
 IR Inten    --     94.3533                23.1679                25.0449

                     55                     56                     57
                      A                      A                      A
 Frequencies --   1310.2731              1318.2974              1347.4073
 Red. masses --      1.3337                 1.2368                 1.2624
 Frc consts  --      1.3491                 1.2664                 1.3504
 IR Inten    --     33.9877                21.1965                 2.5760

                     58                     59                     60
                      A                      A                      A
 Frequencies --   1366.8319              1396.7914              1411.0603
 Red. masses --      1.2947                 1.3571                 1.3504
 Frc consts  --      1.4251                 1.5600                 1.5842
 IR Inten    --     18.5406                34.2780                13.9906

                     61                     62                     63
                      A                      A                      A
 Frequencies --   1422.6979              1431.2964              1448.0006
 Red. masses --      1.3323                 1.2520                 1.2120
 Frc consts  --      1.5888                 1.5112                 1.4973
 IR Inten    --      7.2959                17.1261                15.4176

                     64                     65                     66
                      A                      A                      A
 Frequencies --   1496.2952              1499.1915              1501.0563
 Red. masses --      1.1459                 1.1373                 1.1432
 Frc consts  --      1.5116                 1.5060                 1.5177
 IR Inten    --      2.0500                 4.4284                 1.3142

                     67                     68                     69
                      A                      A                      A
 Frequencies --   1503.8768              1509.6196              1516.0163
 Red. masses --      1.1503                 1.0463                 1.0492
 Frc consts  --      1.5328                 1.4049                 1.4207
 IR Inten    --      1.4555                 9.8111                 7.8471

                     70                     71                     72
                      A                      A                      A
 Frequencies --   1517.7447              1518.2694              1522.7453
 Red. masses --      1.0472                 1.0501                 1.0652
 Frc consts  --      1.4212                 1.4262                 1.4552
 IR Inten    --      3.3077                24.1561                14.7554

                     73                     74                     75
                      A                      A                      A
 Frequencies --   1525.9743              1535.1054              1537.5455
 Red. masses --      1.0482                 1.0501                 1.0880
 Frc consts  --      1.4381                 1.4580                 1.5155
 IR Inten    --      8.2332                15.8806                 9.6101

                     76                     77                     78
                      A                      A                      A
 Frequencies --   1539.0145              1643.2839              3003.1225
 Red. masses --      1.0516                 6.6274                 1.0792
 Frc consts  --      1.4675                10.5443                 5.7348
 IR Inten    --     19.5048               208.3736                21.5217

                     79                     80                     81
                      A                      A                      A
 Frequencies --   3020.0294              3032.3650              3033.3850
 Red. masses --      1.0564                 1.0355                 1.0389
 Frc consts  --      5.6769                 5.6100                 5.6321
 IR Inten    --     28.3573                71.3618                33.7334

                     82                     83                     84
                      A                      A                      A
 Frequencies --   3038.9560              3048.7675              3064.2636
 Red. masses --      1.0423                 1.0337                 1.1052
 Frc consts  --      5.6714                 5.6609                 6.1143
 IR Inten    --     40.5236                35.2940                43.2501

                     85                     86                     87
                      A                      A                      A
 Frequencies --   3092.3465              3093.2412              3105.9413
 Red. masses --      1.1072                 1.0864                 1.1002
 Frc consts  --      6.2384                 6.1247                 6.2535
 IR Inten    --     41.6433                11.8791                44.6907

                     88                     89                     90
                      A                      A                      A
 Frequencies --   3113.9226              3121.5493              3127.2788
 Red. masses --      1.0996                 1.0924                 1.0955
 Frc consts  --      6.2823                 6.2716                 6.3122
 IR Inten    --     35.1507                27.7096                30.2759

                     91                     92                     93
                      A                      A                      A
 Frequencies --   3167.1198              3167.2079              3170.4958
 Red. masses --      1.1010                 1.1014                 1.1016
 Frc consts  --      6.5070                 6.5094                 6.5244
 IR Inten    --     25.9398                18.3351                20.1365

                     94                     95                     96
                      A                      A                      A
 Frequencies --   3177.8165              3181.5973              3191.9863
 Red. masses --      1.0879                 1.1040                 1.0948
 Frc consts  --      6.4730                 6.5843                 6.5722
 IR Inten    --      0.1295                15.0528                 1.8154

 - Thermochemistry -
 -------------------
 Temperature   298.150 Kelvin.  Pressure   1.00000 Atm.
 Atom     1 has atomic number  6 and mass  12.00000

 Molecular mass:   219.12325 amu.
 Principal axes and moments of inertia in atomic units:
                           1         2         3
     Eigenvalues --  2646.400283683.538684547.13888
           X            0.99977  -0.01039   0.01854
           Y            0.01092   0.99953  -0.02867
           Z           -0.01823   0.02886   0.99942
 This molecule is an asymmetric top.
 Rotational symmetry number  1.
 Warning -- assumption of classical behavior for rotation
           may cause significant error
 Rotational temperatures (Kelvin)      0.03273     0.02351     0.01905
 Rotational constants (GHZ):           0.68196     0.48995     0.39690
 Zero-point vibrational energy     775187.5 (Joules/Mol)
                                  185.27425 (Kcal/Mol)
 Warning -- explicit consideration of  25 degrees of freedom as
           vibrations may cause significant error
 Vibrational temperatures:     47.27    87.32    94.24   114.20   152.07
          (Kelvin)            172.05   174.08   228.35   251.05   271.07
                              310.22   320.81   327.39   361.97   373.34
                              398.77   428.00   467.00   493.03   507.05
                              567.69   649.89   688.94   765.93   800.63
                              894.16   943.04  1026.26  1082.37  1208.08
                             1303.89  1327.76  1366.13  1392.44  1439.20
                             1476.82  1505.35  1530.70  1591.01  1600.34
                             1641.99  1666.24  1691.67  1692.58  1697.89
                             1708.05  1712.38  1725.46  1762.91  1769.29
                             1772.58  1782.95  1801.50  1826.85  1885.19
                             1896.74  1938.62  1966.57  2009.67  2030.20
                             2046.94  2059.32  2083.35  2152.84  2157.00
                             2159.69  2163.74  2172.01  2181.21  2183.70
                             2184.45  2190.89  2195.54  2208.67  2212.19
                             2214.30  2364.32  4320.82  4345.15  4362.90
                             4364.36  4372.38  4386.50  4408.79  4449.20
                             4450.48  4468.76  4480.24  4491.21  4499.46
                             4556.78  4556.91  4561.64  4572.17  4577.61
                             4592.56

 Zero-point correction=                           0.295253 (Hartree/Particle)
 Thermal correction to Energy=                    0.312291
 Thermal correction to Enthalpy=                  0.313236
 Thermal correction to Gibbs Free Energy=         0.250522
 Sum of electronic and zero-point Energies=           -768.030027
 Sum of electronic and thermal Energies=              -768.012989
 Sum of electronic and thermal Enthalpies=            -768.012045
 Sum of electronic and thermal Free Energies=         -768.074758

                     E (Thermal)             CV                S
                      KCal/Mol        Cal/Mol-Kelvin    Cal/Mol-Kelvin
 Total                  195.966             61.417            131.991
 Electronic               0.000              0.000              0.000
 Translational            0.889              2.981             42.056
 Rotational               0.889              2.981             32.161
 Vibrational            194.188             55.455             57.774
 Vibration     1          0.594              1.983              5.649
 Vibration     2          0.597              1.973              4.435
 Vibration     3          0.597              1.971              4.284
 Vibration     4          0.600              1.963              3.906
 Vibration     5          0.605              1.945              3.347
 Vibration     6          0.609              1.933              3.107
 Vibration     7          0.609              1.932              3.084
 Vibration     8          0.621              1.893              2.565
 Vibration     9          0.627              1.874              2.387
 Vibration    10          0.633              1.856              2.244
 Vibration    11          0.645              1.817              1.996
 Vibration    12          0.649              1.806              1.935
 Vibration    13          0.651              1.799              1.898
 Vibration    14          0.664              1.760              1.719
 Vibration    15          0.668              1.747              1.665
 Vibration    16          0.678              1.716              1.551
 Vibration    17          0.691              1.678              1.431
 Vibration    18          0.709              1.626              1.287
 Vibration    19          0.722              1.590              1.200
 Vibration    20          0.729              1.570              1.155
 Vibration    21          0.762              1.482              0.983
 Vibration    22          0.810              1.357              0.791
 Vibration    23          0.835              1.297              0.713
 Vibration    24          0.887              1.178              0.582
 Vibration    25          0.912              1.126              0.531

                           ! Non-Optimized Parameters !
 Normal termination of Gaussian 16 at Fri May 24 09:03:23 2019.
