 Gaussian 16, Revision A.03,
 Gaussian 16:  ES64L-G16RevA.03 25-Dec-2016

 -------------------------------------------------------------------
 #p b3lyp 6-31g* opt freq=noraman scrf=(pcm,solvent=tetrahydrofuran)
 -------------------------------------------------------------------

 -----
 title
 -----
 Symbolic Z-matrix:
 Charge =  1 Multiplicity = 1

 SCF Done:  E(RB3LYP) =  -768.326629759     A.U. after   13 cycles
 SCF Done:  E(RB3LYP) =  -768.326629813     A.U. after    6 cycles
 Optimization completed.
    -- Stationary point found.
 Normal termination of Gaussian 16 at Fri May 24 08:37:55 2019.

 --------------------------------------------------------------------
 #P Geom=AllCheck Guess=TCheck SCRF=Check GenChk RB3LYP/6-31G(d) Freq
 --------------------------------------------------------------------

 Structure from the checkpoint file:  "/scratch/Gau-21008.chk"
 -----
 title
 -----
 Charge =  1 Multiplicity = 1

                         Standard orientation:
 ---------------------------------------------------------------------
 Center     Atomic      Atomic             Coordinates (Angstroms)
 Number     Number       Type             X           Y           Z
 ---------------------------------------------------------------------
      1          6           0       -1.595734   -0.253003   -0.040722
      2          6           0       -1.442763    1.276186   -0.145189
      3          6           0       -0.460369    1.469084   -1.279406
      4          6           0        0.982413   -0.093428   -0.153604
      5          6           0       -0.237012   -0.939028    0.271220
      6          1           0       -0.613981    2.123209   -2.138562
      7          1           0       -2.401477    1.740812   -0.392958
      8          1           0       -2.316476   -0.488927    0.751983
      9          1           0        1.249921    0.569894    0.668117
     10          1           0       -0.219241   -1.889834   -0.281183
     11          8           0        0.637923    0.864399   -1.275723
     12          8           0       -0.871797    1.790565    1.035159
     13          8           0       -2.063515   -0.608029   -1.331122
     14          8           0       -0.024140   -1.157357    1.649571
     15          6           0        2.163012   -0.898781   -0.675150
     16          1           0        1.885453   -1.374184   -1.621999
     17          1           0        2.360256   -1.692211    0.061157
     18          8           0        3.299206   -0.107078   -0.921303
     19          6           0       -1.144502    3.180162    1.289145
     20          1           0       -0.737712    3.381348    2.280470
     21          1           0       -0.655693    3.832319    0.556796
     22          1           0       -2.224465    3.364989    1.287149
     23          6           0       -2.814094   -1.821849   -1.398756
     24          1           0       -3.122554   -1.933851   -2.439175
     25          1           0       -2.212719   -2.691590   -1.106656
     26          1           0       -3.701489   -1.762487   -0.756303
     27          6           0       -0.557269   -2.387134    2.142844
     28          1           0       -0.294801   -2.429609    3.201107
     29          1           0       -1.649422   -2.428735    2.043162
     30          1           0       -0.114776   -3.245867    1.621067
     31          6           0        4.101459    0.139401    0.230851
     32          1           0        4.952822    0.734185   -0.105397
     33          1           0        3.560187    0.702244    1.003981
     34          1           0        4.463914   -0.801355    0.667189
 ---------------------------------------------------------------------

 SCF Done:  E(RB3LYP) =  -768.326629813     A.U. after    1 cycles

 The electronic state is 1-A.
 Alpha  occ. eigenvalues --  -19.32731 -19.21625 -19.19908 -19.19269 -19.18149
 Alpha  occ. eigenvalues --  -10.39395 -10.31400 -10.31284 -10.29519 -10.29467
 Alpha  occ. eigenvalues --  -10.27487 -10.26311 -10.25643 -10.25242 -10.24628
 Alpha  occ. eigenvalues --   -1.21561  -1.09767  -1.08139  -1.07240  -1.06364
 Alpha  occ. eigenvalues --   -0.86670  -0.85377  -0.76455  -0.74788  -0.74045
 Alpha  occ. eigenvalues --   -0.71294  -0.69139  -0.68405  -0.65557  -0.61285
 Alpha  occ. eigenvalues --   -0.60880  -0.58301  -0.56834  -0.54435  -0.53301
 Alpha  occ. eigenvalues --   -0.51810  -0.51036  -0.50411  -0.50164  -0.49772
 Alpha  occ. eigenvalues --   -0.48698  -0.47915  -0.46761  -0.46089  -0.45723
 Alpha  occ. eigenvalues --   -0.43692  -0.43434  -0.41983  -0.41207  -0.40527
 Alpha  occ. eigenvalues --   -0.39983  -0.37388  -0.36440  -0.35919  -0.34733
 Alpha  occ. eigenvalues --   -0.32355  -0.31454  -0.29311  -0.28183
 Alpha virt. eigenvalues --   -0.15415   0.00995   0.04392   0.05717   0.05999
 Alpha virt. eigenvalues --    0.07189   0.08580   0.09019   0.09658   0.10380
 Alpha virt. eigenvalues --    0.10789   0.11742   0.11939   0.12630   0.12960

 Mulliken charges:
               1
     1  C    0.074823
     2  C    0.047584
     3  C    0.306554
     4  C    0.051710
     5  C    0.112455
     6  H    0.278523
     7  H    0.213796
     8  H    0.198430
     9  H    0.247506
    10  H    0.181331
    11  O   -0.291549
    12  O   -0.469583
    13  O   -0.496360
    14  O   -0.482362
    15  C   -0.056025
    16  H    0.190744
    17  H    0.183076
    18  O   -0.469389
    19  C   -0.229561
    20  H    0.199122
    21  H    0.173644
    22  H    0.179015
    23  C   -0.222867
    24  H    0.189088
    25  H    0.164386
    26  H    0.169872
    27  C   -0.226083
    28  H    0.187266
    29  H    0.161137
    30  H    0.164133
    31  C   -0.224826
    32  H    0.180998
    33  H    0.153226
    34  H    0.160183
 Sum of Mulliken charges =   1.00000

 Dipole moment (field-independent basis, Debye):
    X=             -3.7056    Y=              1.8624    Z=             -0.7553  Tot=              4.2155
 Quadrupole moment (field-independent basis, Debye-Ang):
   XX=            -69.2433   YY=            -58.0770   ZZ=            -81.7252
   XY=             -1.9251   XZ=              6.0735   YZ=             -3.0975

  Exact polarizability: 149.331  -1.714 145.954   5.040  -0.757 133.707
 Approx polarizability: 161.534  -2.446 157.933   4.004  -2.293 161.637

                      1                      2                      3
                      A                      A                      A
 Frequencies --     41.7638                62.6764                75.3462
 Red. masses --      4.1399                 3.1895                 2.6808
 Frc consts  --      0.0043                 0.0074                 0.0090
 IR Inten    --      0.5483                 0.4622                 4.1598

                      4                      5                      6
                      A                      A                      A
 Frequencies --     84.0664               100.1812               108.8114
 Red. masses --      3.4410                 2.5128                 2.7512
 Frc consts  --      0.0143                 0.0149                 0.0192
 IR Inten    --      2.8326                 0.9740                 4.4690

                      7                      8                      9
                      A                      A                      A
 Frequencies --    120.5011               128.3941               150.3103
 Red. masses --      2.9846                 2.8502                 1.5787
 Frc consts  --      0.0255                 0.0277                 0.0210
 IR Inten    --     12.2164                 2.8127                 3.5648

                     10                     11                     12
                      A                      A                      A
 Frequencies --    157.7084               179.9805               207.2502
 Red. masses --      1.2974                 1.4369                 2.0964
 Frc consts  --      0.0190                 0.0274                 0.0531
 IR Inten    --      0.9031                 4.1940                 2.6098

                     13                     14                     15
                      A                      A                      A
 Frequencies --    218.5061               240.8375               252.6598
 Red. masses --      2.2174                 1.3537                 4.5365
 Frc consts  --      0.0624                 0.0463                 0.1706
 IR Inten    --     12.5882                 1.1515                11.4020

                     16                     17                     18
                      A                      A                      A
 Frequencies --    272.9380               305.3821               315.0678
 Red. masses --      2.7588                 3.5326                 3.5986
 Frc consts  --      0.1211                 0.1941                 0.2105
 IR Inten    --     17.3761                12.3375                 2.1063

                     19                     20                     21
                      A                      A                      A
 Frequencies --    341.5816               386.7462               403.4518
 Red. masses --      3.2365                 4.1551                 3.8222
 Frc consts  --      0.2225                 0.3662                 0.3666
 IR Inten    --      2.6354                10.2292                 2.8720

                     22                     23                     24
                      A                      A                      A
 Frequencies --    437.5229               472.1367               490.3657
 Red. masses --      2.6133                 5.4003                 2.9169
 Frc consts  --      0.2947                 0.7093                 0.4132
 IR Inten    --     12.4182                17.9395                 8.3305

                     25                     26                     27
                      A                      A                      A
 Frequencies --    527.8535               581.7526               621.0491
 Red. masses --      4.2342                 4.6049                 3.5851
 Frc consts  --      0.6951                 0.9182                 0.8147
 IR Inten    --     30.4374                35.8731                 9.0221

                     28                     29                     30
                      A                      A                      A
 Frequencies --    711.8201               867.9816               887.7823
 Red. masses --      4.1003                 3.0988                 3.7924
 Frc consts  --      1.2241                 1.3755                 1.7611
 IR Inten    --     38.3775                47.5816                 9.8956

                     31                     32                     33
                      A                      A                      A
 Frequencies --    913.8535               936.6395               950.3649
 Red. masses --      3.2183                 3.5626                 5.1498
 Frc consts  --      1.5835                 1.8414                 2.7404
 IR Inten    --     27.5600                58.6530                25.5591

                     34                     35                     36
                      A                      A                      A
 Frequencies --    967.0476              1008.0493              1020.2003
 Red. masses --      3.1179                 2.7914                 3.3862
 Frc consts  --      1.7179                 1.6712                 2.0765
 IR Inten    --     21.8292                 9.1030                40.5548

                     37                     38                     39
                      A                      A                      A
 Frequencies --   1049.5969              1076.8691              1113.7181
 Red. masses --      3.0153                 2.1770                 2.4101
 Frc consts  --      1.9571                 1.4874                 1.7613
 IR Inten    --     11.0870                17.9509                23.3155

                     40                     41                     42
                      A                      A                      A
 Frequencies --   1117.5382              1135.8316              1142.6761
 Red. masses --      4.3830                 4.9739                 2.8090
 Frc consts  --      3.2251                 3.7807                 2.1610
 IR Inten    --     62.6498               379.1418                87.8421

                     43                     44                     45
                      A                      A                      A
 Frequencies --   1149.7413              1149.9799              1184.0186
 Red. masses --      3.0182                 4.5294                 1.2612
 Frc consts  --      2.3507                 3.5291                 1.0417
 IR Inten    --    156.2143                87.0755                 4.1697

                     46                     47                     48
                      A                      A                      A
 Frequencies --   1185.3852              1188.3492              1189.2293
 Red. masses --      1.2763                 1.2672                 1.2894
 Frc consts  --      1.0567                 1.0543                 1.0744
 IR Inten    --      2.6721                 3.7120                 5.7172

                     49                     50                     51
                      A                      A                      A
 Frequencies --   1216.9370              1222.1900              1230.0795
 Red. masses --      1.5345                 1.5033                 1.6985
 Frc consts  --      1.3389                 1.3230                 1.5142
 IR Inten    --     46.9901                 4.0151                95.5260

                     52                     53                     54
                      A                      A                      A
 Frequencies --   1234.3252              1259.2673              1287.7364
 Red. masses --      1.5839                 1.6437                 1.4031
 Frc consts  --      1.4218                 1.5357                 1.3708
 IR Inten    --     25.3832                 7.8745                15.8869

                     55                     56                     57
                      A                      A                      A
 Frequencies --   1321.4071              1325.7112              1352.7970
 Red. masses --      1.2221                 1.2637                 1.1650
 Frc consts  --      1.2572                 1.3086                 1.2561
 IR Inten    --      4.6147                20.5702                12.9905

                     58                     59                     60
                      A                      A                      A
 Frequencies --   1353.0726              1372.3407              1391.4729
 Red. masses --      1.2116                 1.2909                 1.4333
 Frc consts  --      1.3069                 1.4324                 1.6351
 IR Inten    --     29.6852                 8.1167                 3.2129

                     61                     62                     63
                      A                      A                      A
 Frequencies --   1403.6689              1426.2844              1434.8462
 Red. masses --      1.3474                 1.3824                 1.3729
 Frc consts  --      1.5641                 1.6569                 1.6653
 IR Inten    --     39.0268                15.8827                41.9400

                     64                     65                     66
                      A                      A                      A
 Frequencies --   1491.7112              1494.4724              1498.9729
 Red. masses --      1.0930                 1.1215                 1.1182
 Frc consts  --      1.4330                 1.4758                 1.4803
 IR Inten    --      2.2902                 2.4948                 4.3181

                     67                     68                     69
                      A                      A                      A
 Frequencies --   1500.8935              1508.9269              1512.3796
 Red. masses --      1.1168                 1.1011                 1.0570
 Frc consts  --      1.4822                 1.4771                 1.4244
 IR Inten    --      0.1375                10.3768                10.7805

                     70                     71                     72
                      A                      A                      A
 Frequencies --   1513.9374              1520.3811              1523.9879
 Red. masses --      1.0652                 1.0621                 1.0803
 Frc consts  --      1.4385                 1.4466                 1.4783
 IR Inten    --      3.6749                16.2032                 4.7118

                     73                     74                     75
                      A                      A                      A
 Frequencies --   1525.7544              1526.6947              1531.4605
 Red. masses --      1.0565                 1.0646                 1.0449
 Frc consts  --      1.4490                 1.4620                 1.4439
 IR Inten    --     37.6405                 7.6009                 1.6605

                     76                     77                     78
                      A                      A                      A
 Frequencies --   1532.2968              1652.8626              3019.3930
 Red. masses --      1.0739                 6.7099                 1.0369
 Frc consts  --      1.4855                10.8003                 5.5697
 IR Inten    --     11.6331               156.2115                51.3009

                     79                     80                     81
                      A                      A                      A
 Frequencies --   3027.3349              3032.5632              3034.8214
 Red. masses --      1.0697                 1.0462                 1.0640
 Frc consts  --      5.7760                 5.6685                 5.7737
 IR Inten    --     26.8393                41.0627                24.0050

                     82                     83                     84
                      A                      A                      A
 Frequencies --   3037.5305              3053.6218              3075.0606
 Red. masses --      1.0340                 1.0324                 1.0861
 Frc consts  --      5.6210                 5.6721                 6.0510
 IR Inten    --     71.3709                54.1632                14.2571

                     85                     86                     87
                      A                      A                      A
 Frequencies --   3075.6545              3091.5489              3099.6155
 Red. masses --      1.1060                 1.1067                 1.1071
 Frc consts  --      6.1643                 6.2320                 6.2670
 IR Inten    --     67.9042                58.5895                46.8531

                     88                     89                     90
                      A                      A                      A
 Frequencies --   3107.5618              3118.0376              3127.4415
 Red. masses --      1.1003                 1.0951                 1.0994
 Frc consts  --      6.2607                 6.2726                 6.3358
 IR Inten    --     16.0752                35.3426                12.4886

                     91                     92                     93
                      A                      A                      A
 Frequencies --   3158.8548              3166.3447              3167.4641
 Red. masses --      1.0992                 1.1001                 1.0873
 Frc consts  --      6.4625                 6.4983                 6.4273
 IR Inten    --     29.0881                22.9404                 2.0274

                     94                     95                     96
                      A                      A                      A
 Frequencies --   3169.4011              3181.7763              3202.3328
 Red. masses --      1.1015                 1.1031                 1.0953
 Frc consts  --      6.5188                 6.5795                 6.6181
 IR Inten    --     19.6251                11.4857                 0.6794

 - Thermochemistry -
 -------------------
 Temperature   298.150 Kelvin.  Pressure   1.00000 Atm.
 Atom     1 has atomic number  6 and mass  12.00000

 Molecular mass:   219.12325 amu.
 Principal axes and moments of inertia in atomic units:
                           1         2         3
     Eigenvalues --  2771.161953990.581434645.88534
           X            0.99983   0.01101   0.01509
           Y           -0.01123   0.99983   0.01458
           Z           -0.01493  -0.01474   0.99978
 This molecule is an asymmetric top.
 Rotational symmetry number  1.
 Warning -- assumption of classical behavior for rotation
           may cause significant error
 Rotational temperatures (Kelvin)      0.03126     0.02170     0.01864
 Rotational constants (GHZ):           0.65126     0.45225     0.38846
 Zero-point vibrational energy     773653.4 (Joules/Mol)
                                  184.90759 (Kcal/Mol)
 Warning -- explicit consideration of  26 degrees of freedom as
           vibrations may cause significant error
 Vibrational temperatures:     60.09    90.18   108.41   120.95   144.14
          (Kelvin)            156.56   173.37   184.73   216.26   226.91
                              258.95   298.19   314.38   346.51   363.52
                              392.70   439.38   453.31   491.46   556.44
                              580.48   629.50   679.30   705.53   759.46
                              837.01   893.55  1024.15  1248.83  1277.32
                             1314.83  1347.62  1367.36  1391.37  1450.36
                             1467.84  1510.14  1549.37  1602.39  1607.89
                             1634.21  1644.06  1654.22  1654.56  1703.54
                             1705.50  1709.77  1711.04  1750.90  1758.46
                             1769.81  1775.92  1811.80  1852.77  1901.21
                             1907.40  1946.37  1946.77  1974.49  2002.02
                             2019.57  2052.11  2064.42  2146.24  2150.21
                             2156.69  2159.45  2171.01  2175.98  2178.22
                             2187.49  2192.68  2195.22  2196.57  2203.43
                             2204.63  2378.10  4344.23  4355.66  4363.18
                             4366.43  4370.33  4393.48  4424.33  4425.18
                             4448.05  4459.66  4471.09  4486.16  4499.69
                             4544.89  4555.66  4557.27  4560.06  4577.87
                             4607.44

 Zero-point correction=                           0.294669 (Hartree/Particle)
 Thermal correction to Energy=                    0.311977
 Thermal correction to Enthalpy=                  0.312921
 Thermal correction to Gibbs Free Energy=         0.249597
 Sum of electronic and zero-point Energies=           -768.031961
 Sum of electronic and thermal Energies=              -768.014653
 Sum of electronic and thermal Enthalpies=            -768.013709
 Sum of electronic and thermal Free Energies=         -768.077033

                     E (Thermal)             CV                S
                      KCal/Mol        Cal/Mol-Kelvin    Cal/Mol-Kelvin
 Total                  195.768             61.694            133.276
 Electronic               0.000              0.000              0.000
 Translational            0.889              2.981             42.056
 Rotational               0.889              2.981             32.308
 Vibrational            193.991             55.733             58.912
 Vibration     1          0.594              1.980              5.174
 Vibration     2          0.597              1.972              4.371
 Vibration     3          0.599              1.965              4.009
 Vibration     4          0.601              1.960              3.794
 Vibration     5          0.604              1.949              3.451
 Vibration     6          0.606              1.942              3.290
 Vibration     7          0.609              1.932              3.092
 Vibration     8          0.611              1.925              2.970
 Vibration     9          0.618              1.902              2.668
 Vibration    10          0.621              1.894              2.577
 Vibration    11          0.629              1.867              2.329
 Vibration    12          0.641              1.830              2.068
 Vibration    13          0.646              1.813              1.971
 Vibration    14          0.658              1.778              1.797
 Vibration    15          0.664              1.758              1.712
 Vibration    16          0.676              1.723              1.578
 Vibration    17          0.696              1.663              1.387
 Vibration    18          0.702              1.645              1.336
 Vibration    19          0.721              1.592              1.205
 Vibration    20          0.755              1.498              1.013
 Vibration    21          0.769              1.463              0.950
 Vibration    22          0.798              1.388              0.834
 Vibration    23          0.829              1.312              0.732
 Vibration    24          0.846              1.271              0.683
 Vibration    25          0.883              1.188              0.592
 Vibration    26          0.939              1.071              0.482

                           ! Non-Optimized Parameters !
 Normal termination of Gaussian 16 at Fri May 24 09:08:50 2019.
