 Gaussian 16, Revision A.03,
 Gaussian 16:  ES64L-G16RevA.03 25-Dec-2016

 -------------------------------------------------------------------
 #p b3lyp 6-31g* opt freq=noraman scrf=(pcm,solvent=tetrahydrofuran)
 -------------------------------------------------------------------

 -----
 title
 -----
 Symbolic Z-matrix:
 Charge =  1 Multiplicity = 1

 SCF Done:  E(RB3LYP) =  -768.321516943     A.U. after   15 cycles
 Optimization completed.
    -- Stationary point found.
 Normal termination of Gaussian 16 at Fri May 24 08:39:06 2019.

 --------------------------------------------------------------------
 #P Geom=AllCheck Guess=TCheck SCRF=Check GenChk RB3LYP/6-31G(d) Freq
 --------------------------------------------------------------------

 Structure from the checkpoint file:  "/scratch/Gau-60958.chk"
 -----
 title
 -----
 Charge =  1 Multiplicity = 1

                         Standard orientation:
 ---------------------------------------------------------------------
 Center     Atomic      Atomic             Coordinates (Angstroms)
 Number     Number       Type             X           Y           Z
 ---------------------------------------------------------------------
      1          6           0       -1.130143    0.473437   -0.322878
      2          6           0       -1.682240   -0.740968    0.482499
      3          6           0       -1.063291   -1.992188   -0.027984
      4          6           0        1.046467   -0.899451   -0.592251
      5          6           0        0.414332    0.470984   -0.259119
      6          1           0       -1.618979   -2.932149   -0.031533
      7          1           0       -1.295767   -0.665309    1.516371
      8          1           0       -1.407791    0.365654   -1.375511
      9          1           0        1.296027   -0.927039   -1.653171
     10          1           0        0.740510    0.767373    0.744967
     11          8           0        0.112399   -2.077281   -0.462405
     12          8           0       -3.066684   -0.862314    0.607831
     13          8           0       -1.701666    1.692243    0.072784
     14          8           0        0.927610    1.354913   -1.231812
     15          6           0        2.254532   -1.281243    0.267020
     16          1           0        2.640269   -2.260831   -0.051999
     17          1           0        1.949874   -1.359533    1.324141
     18          8           0        3.198056   -0.257158    0.077101
     19          6           0       -3.827362   -0.726213   -0.605097
     20          1           0       -3.484072   -1.423892   -1.381169
     21          1           0       -4.853240   -0.975154   -0.332876
     22          1           0       -3.786003    0.300039   -0.980860
     23          6           0       -1.713834    2.006059    1.468917
     24          1           0       -0.709728    2.004717    1.909314
     25          1           0       -2.124500    3.014425    1.536823
     26          1           0       -2.364112    1.320084    2.024307
     27          6           0        1.402866    2.606012   -0.729873
     28          1           0        0.588870    3.198058   -0.297796
     29          1           0        2.192757    2.450396    0.014417
     30          1           0        1.816665    3.136455   -1.589636
     31          6           0        4.390100   -0.465847    0.829262
     32          1           0        4.180435   -0.490700    1.907764
     33          1           0        5.049868    0.374479    0.606817
     34          1           0        4.882636   -1.403781    0.538661
 ---------------------------------------------------------------------

 SCF Done:  E(RB3LYP) =  -768.321516943     A.U. after    1 cycles

 The electronic state is 1-A.
 Alpha  occ. eigenvalues --  -19.33423 -19.20996 -19.19829 -19.18770 -19.18739
 Alpha  occ. eigenvalues --  -10.40036 -10.32232 -10.32224 -10.29822 -10.29545
 Alpha  occ. eigenvalues --  -10.28119 -10.26070 -10.25528 -10.24836 -10.24566
 Alpha  occ. eigenvalues --   -1.22048  -1.09952  -1.08096  -1.07134  -1.06277
 Alpha  occ. eigenvalues --   -0.87379  -0.85999  -0.77914  -0.75096  -0.74311
 Alpha  occ. eigenvalues --   -0.71618  -0.68880  -0.67423  -0.66040  -0.62547
 Alpha  occ. eigenvalues --   -0.60479  -0.59139  -0.55749  -0.54839  -0.54127
 Alpha  occ. eigenvalues --   -0.52690  -0.51810  -0.50926  -0.50741  -0.48999
 Alpha  occ. eigenvalues --   -0.48579  -0.47703  -0.46769  -0.45765  -0.45167
 Alpha  occ. eigenvalues --   -0.44431  -0.43527  -0.42561  -0.41383  -0.40705
 Alpha  occ. eigenvalues --   -0.39615  -0.37235  -0.35976  -0.35503  -0.34990
 Alpha  occ. eigenvalues --   -0.32531  -0.31047  -0.29227  -0.27937
 Alpha virt. eigenvalues --   -0.15533  -0.00808   0.03938   0.04817   0.06687
 Alpha virt. eigenvalues --    0.07150   0.07650   0.08993   0.09652   0.09941
 Alpha virt. eigenvalues --    0.10860   0.12026   0.12814   0.12865   0.13571

 Mulliken charges:
               1
     1  C    0.113771
     2  C    0.011185
     3  C    0.287191
     4  C    0.059496
     5  C    0.094257
     6  H    0.284001
     7  H    0.253621
     8  H    0.195192
     9  H    0.248975
    10  H    0.180562
    11  O   -0.308420
    12  O   -0.469590
    13  O   -0.470832
    14  O   -0.482543
    15  C   -0.025706
    16  H    0.177068
    17  H    0.161651
    18  O   -0.472486
    19  C   -0.244018
    20  H    0.163250
    21  H    0.198448
    22  H    0.188614
    23  C   -0.247175
    24  H    0.164076
    25  H    0.194482
    26  H    0.175178
    27  C   -0.224659
    28  H    0.165221
    29  H    0.164172
    30  H    0.180261
    31  C   -0.212092
    32  H    0.155889
    33  H    0.181806
    34  H    0.159154
 Sum of Mulliken charges =   1.00000

 Dipole moment (field-independent basis, Debye):
    X=             -0.8460    Y=             -5.2643    Z=              1.9291  Tot=              5.6701
 Quadrupole moment (field-independent basis, Debye-Ang):
   XX=            -62.6983   YY=            -68.4264   ZZ=            -82.7360
   XY=              4.0733   XZ=              7.0056   YZ=              4.7445

  Exact polarizability: 165.648   3.739 150.324  -4.153   4.597 118.165
 Approx polarizability: 172.520   0.500 172.380  -8.138   3.220 148.372

                      1                      2                      3
                      A                      A                      A
 Frequencies --     35.5172                67.0008                76.0744
 Red. masses --      3.7666                 3.8006                 2.8750
 Frc consts  --      0.0028                 0.0101                 0.0098
 IR Inten    --      0.4316                 0.3248                 1.3934

                      4                      5                      6
                      A                      A                      A
 Frequencies --     83.9086                99.9383               104.2585
 Red. masses --      2.7500                 2.6187                 2.7085
 Frc consts  --      0.0114                 0.0154                 0.0173
 IR Inten    --      2.2864                 7.4692                 5.0246

                      7                      8                      9
                      A                      A                      A
 Frequencies --    128.5571               145.1028               178.4167
 Red. masses --      2.4399                 2.6800                 1.4245
 Frc consts  --      0.0238                 0.0332                 0.0267
 IR Inten    --      2.6544                 6.8223                 2.4437

                     10                     11                     12
                      A                      A                      A
 Frequencies --    186.3891               198.1757               212.4116
 Red. masses --      2.7070                 1.3841                 1.7794
 Frc consts  --      0.0554                 0.0320                 0.0473
 IR Inten    --      5.8137                 1.6769                 6.7908

                     13                     14                     15
                      A                      A                      A
 Frequencies --    221.1020               230.0493               265.0631
 Red. masses --      1.3405                 1.6133                 2.6248
 Frc consts  --      0.0386                 0.0503                 0.1087
 IR Inten    --      3.9075                 4.3781                 4.9652

                     16                     17                     18
                      A                      A                      A
 Frequencies --    273.4285               297.1530               327.4656
 Red. masses --      3.2857                 4.0784                 3.7704
 Frc consts  --      0.1447                 0.2122                 0.2382
 IR Inten    --     11.0377                 1.4330                 9.3756

                     19                     20                     21
                      A                      A                      A
 Frequencies --    340.0664               354.7904               407.3396
 Red. masses --      5.1887                 3.9792                 5.0466
 Frc consts  --      0.3535                 0.2951                 0.4934
 IR Inten    --      7.0147                 7.2946                 3.4079

                     22                     23                     24
                      A                      A                      A
 Frequencies --    434.4693               483.5839               529.2818
 Red. masses --      3.7305                 4.1651                 4.1803
 Frc consts  --      0.4149                 0.5739                 0.6900
 IR Inten    --      2.3000                20.1551                 8.8409

                     25                     26                     27
                      A                      A                      A
 Frequencies --    540.7620               563.3700               605.6151
 Red. masses --      3.3283                 4.2308                 2.7814
 Frc consts  --      0.5734                 0.7912                 0.6010
 IR Inten    --     20.9433                11.7120                19.7764

                     28                     29                     30
                      A                      A                      A
 Frequencies --    719.5438               800.8153               842.0536
 Red. masses --      4.6317                 6.6845                 2.6118
 Frc consts  --      1.4129                 2.5257                 1.0911
 IR Inten    --     88.0691                52.7165                17.1457

                     31                     32                     33
                      A                      A                      A
 Frequencies --    938.4331               943.9374               956.0494
 Red. masses --      4.0419                 2.2137                 2.7060
 Frc consts  --      2.0972                 1.1621                 1.4573
 IR Inten    --     75.3756                 8.6619                 9.4862

                     34                     35                     36
                      A                      A                      A
 Frequencies --    990.4234              1003.9525              1058.3121
 Red. masses --      4.6733                 4.3493                 3.9116
 Frc consts  --      2.7009                 2.5829                 2.5813
 IR Inten    --     52.2222                 6.9817                39.4233

                     37                     38                     39
                      A                      A                      A
 Frequencies --   1067.0337              1100.0046              1112.2548
 Red. masses --      3.2387                 2.4888                 2.5466
 Frc consts  --      2.1726                 1.7743                 1.8562
 IR Inten    --     58.9395                19.1513               103.2963

                     40                     41                     42
                      A                      A                      A
 Frequencies --   1136.6933              1149.1313              1161.6411
 Red. masses --      2.6830                 4.8170                 2.8972
 Frc consts  --      2.0425                 3.7477                 2.3034
 IR Inten    --     63.5752                97.9991               109.0293

                     43                     44                     45
                      A                      A                      A
 Frequencies --   1165.0266              1172.3212              1181.7778
 Red. masses --      3.2017                 2.0740                 1.2664
 Frc consts  --      2.5603                 1.6794                 1.0421
 IR Inten    --    306.3770                43.5081                 4.0342

                     46                     47                     48
                      A                      A                      A
 Frequencies --   1182.5264              1188.5592              1190.0580
 Red. masses --      1.3301                 1.6320                 1.3867
 Frc consts  --      1.0959                 1.3584                 1.1571
 IR Inten    --     17.7640                25.0993                25.7837

                     49                     50                     51
                      A                      A                      A
 Frequencies --   1227.9107              1229.4841              1236.0678
 Red. masses --      1.5340                 1.6594                 1.7632
 Frc consts  --      1.3627                 1.4779                 1.5872
 IR Inten    --     39.9934                20.2422                69.7440

                     52                     53                     54
                      A                      A                      A
 Frequencies --   1236.9347              1248.6748              1285.0395
 Red. masses --      1.7187                 1.3436                 1.3321
 Frc consts  --      1.5493                 1.2343                 1.2961
 IR Inten    --     42.8784                30.2184                15.3690

                     55                     56                     57
                      A                      A                      A
 Frequencies --   1307.8170              1321.1901              1348.3409
 Red. masses --      1.1956                 1.2229                 1.2292
 Frc consts  --      1.2048                 1.2576                 1.3167
 IR Inten    --     43.7832                16.6013                12.2597

                     58                     59                     60
                      A                      A                      A
 Frequencies --   1355.0622              1383.9841              1398.1668
 Red. masses --      1.2384                 1.3585                 1.4102
 Frc consts  --      1.3397                 1.5331                 1.6242
 IR Inten    --      3.1677                 6.1886                37.0832

                     61                     62                     63
                      A                      A                      A
 Frequencies --   1422.1732              1444.9486              1446.9167
 Red. masses --      1.3037                 1.2690                 1.2432
 Frc consts  --      1.5535                 1.5610                 1.5335
 IR Inten    --      2.0367                32.2648                30.2520

                     64                     65                     66
                      A                      A                      A
 Frequencies --   1495.4083              1497.8324              1501.7919
 Red. masses --      1.1409                 1.1593                 1.1542
 Frc consts  --      1.5032                 1.5323                 1.5337
 IR Inten    --      0.2079                 1.2194                 0.8465

                     67                     68                     69
                      A                      A                      A
 Frequencies --   1503.1947              1508.9870              1511.2265
 Red. masses --      1.1525                 1.0465                 1.0480
 Frc consts  --      1.5344                 1.4040                 1.4102
 IR Inten    --      0.9681                 9.1396                 9.6218

                     70                     71                     72
                      A                      A                      A
 Frequencies --   1515.5276              1519.7620              1525.7899
 Red. masses --      1.0520                 1.0473                 1.0630
 Frc consts  --      1.4237                 1.4252                 1.4580
 IR Inten    --      7.5078                 5.7931                14.2889

                     73                     74                     75
                      A                      A                      A
 Frequencies --   1527.1646              1531.6461              1534.1017
 Red. masses --      1.0523                 1.0507                 1.0505
 Frc consts  --      1.4460                 1.4523                 1.4567
 IR Inten    --      5.4516                14.0788                22.9880

                     76                     77                     78
                      A                      A                      A
 Frequencies --   1554.5569              1645.2867              2987.7110
 Red. masses --      1.0860                 7.0796                 1.0739
 Frc consts  --      1.5462                11.2912                 5.6481
 IR Inten    --      2.5206               251.6570                19.3420

                     79                     80                     81
                      A                      A                      A
 Frequencies --   2994.5523              3022.1066              3039.6892
 Red. masses --      1.0639                 1.0360                 1.0409
 Frc consts  --      5.6212                 5.5750                 5.6667
 IR Inten    --     46.5861                65.0140                35.4342

                     82                     83                     84
                      A                      A                      A
 Frequencies --   3042.4264              3046.2781              3048.3208
 Red. masses --      1.0361                 1.0987                 1.0334
 Frc consts  --      5.6508                 6.0072                 5.6575
 IR Inten    --     25.3698                72.1559                41.7884

                     85                     86                     87
                      A                      A                      A
 Frequencies --   3069.1650              3078.5192              3106.8529
 Red. masses --      1.0807                 1.1069                 1.0888
 Frc consts  --      5.9977                 6.1805                 6.1919
 IR Inten    --     28.5503                53.6732                13.0019

                     88                     89                     90
                      A                      A                      A
 Frequencies --   3109.8736              3118.7047              3125.9080
 Red. masses --      1.1037                 1.1073                 1.0969
 Frc consts  --      6.2892                 6.3457                 6.3152
 IR Inten    --     53.3882                39.6593                29.9766

                     91                     92                     93
                      A                      A                      A
 Frequencies --   3160.0467              3162.2605              3162.7881
 Red. masses --      1.0875                 1.1029                 1.0999
 Frc consts  --      6.3984                 6.4982                 6.4827
 IR Inten    --      0.7982                23.4440                26.5082

                     94                     95                     96
                      A                      A                      A
 Frequencies --   3168.6616              3181.1096              3190.6921
 Red. masses --      1.1009                 1.1038                 1.0950
 Frc consts  --      6.5123                 6.5808                 6.5678
 IR Inten    --     17.8163                14.8235                 2.7968

 - Thermochemistry -
 -------------------
 Temperature   298.150 Kelvin.  Pressure   1.00000 Atm.
 Atom     1 has atomic number  6 and mass  12.00000

 Molecular mass:   219.12325 amu.
 Principal axes and moments of inertia in atomic units:
                           1         2         3
     Eigenvalues --  2024.881734476.512565660.08472
           X            0.99993  -0.00103   0.01199
           Y            0.00086   0.99989   0.01449
           Z           -0.01200  -0.01448   0.99982
 This molecule is an asymmetric top.
 Rotational symmetry number  1.
 Warning -- assumption of classical behavior for rotation
           may cause significant error
 Rotational temperatures (Kelvin)      0.04277     0.01935     0.01530
 Rotational constants (GHZ):           0.89128     0.40316     0.31885
 Zero-point vibrational energy     774764.4 (Joules/Mol)
                                  185.17314 (Kcal/Mol)
 Warning -- explicit consideration of  27 degrees of freedom as
           vibrations may cause significant error
 Vibrational temperatures:     51.10    96.40   109.45   120.73   143.79
          (Kelvin)            150.00   184.97   208.77   256.70   268.17
                              285.13   305.61   318.12   330.99   381.37
                              393.40   427.54   471.15   489.28   510.46
                              586.07   625.10   695.77   761.52   778.04
                              810.56   871.35  1035.26  1152.19  1211.53
                             1350.20  1358.12  1375.54  1425.00  1444.46
                             1522.68  1535.22  1582.66  1600.29  1635.45
                             1653.34  1671.34  1676.21  1686.71  1700.31
                             1701.39  1710.07  1712.23  1766.69  1768.95
                             1778.43  1779.67  1796.56  1848.89  1881.66
                             1900.90  1939.96  1949.63  1991.24  2011.65
                             2046.19  2078.96  2081.79  2151.56  2155.05
                             2160.74  2162.76  2171.10  2174.32  2180.51
                             2186.60  2195.27  2197.25  2203.70  2207.23
                             2236.66  2367.20  4298.65  4308.49  4348.14
                             4373.43  4377.37  4382.91  4385.85  4415.84
                             4429.30  4470.07  4474.41  4487.12  4497.48
                             4546.60  4549.79  4550.55  4559.00  4576.91
                             4590.69

 Zero-point correction=                           0.295092 (Hartree/Particle)
 Thermal correction to Energy=                    0.312229
 Thermal correction to Enthalpy=                  0.313173
 Thermal correction to Gibbs Free Energy=         0.250309
 Sum of electronic and zero-point Energies=           -768.026425
 Sum of electronic and thermal Energies=              -768.009288
 Sum of electronic and thermal Enthalpies=            -768.008344
 Sum of electronic and thermal Free Energies=         -768.071208

                     E (Thermal)             CV                S
                      KCal/Mol        Cal/Mol-Kelvin    Cal/Mol-Kelvin
 Total                  195.927             61.471            132.309
 Electronic               0.000              0.000              0.000
 Translational            0.889              2.981             42.056
 Rotational               0.889              2.981             32.306
 Vibrational            194.149             55.510             57.946
 Vibration     1          0.594              1.982              5.495
 Vibration     2          0.598              1.970              4.240
 Vibration     3          0.599              1.965              3.990
 Vibration     4          0.601              1.960              3.797
 Vibration     5          0.604              1.949              3.456
 Vibration     6          0.605              1.946              3.373
 Vibration     7          0.611              1.925              2.968
 Vibration     8          0.616              1.908              2.735
 Vibration     9          0.629              1.869              2.345
 Vibration    10          0.632              1.858              2.263
 Vibration    11          0.637              1.842              2.150
 Vibration    12          0.643              1.822              2.023
 Vibration    13          0.648              1.809              1.950
 Vibration    14          0.652              1.795              1.879
 Vibration    15          0.671              1.737              1.628
 Vibration    16          0.676              1.722              1.574
 Vibration    17          0.691              1.679              1.433
 Vibration    18          0.711              1.621              1.273
 Vibration    19          0.720              1.595              1.212
 Vibration    20          0.731              1.565              1.145
 Vibration    21          0.772              1.454              0.936
 Vibration    22          0.795              1.395              0.844
 Vibration    23          0.840              1.286              0.700
 Vibration    24          0.884              1.185              0.589
 Vibration    25          0.896              1.160              0.564
 Vibration    26          0.919              1.111              0.517
 Vibration    27          0.964              1.020              0.440

 Optimization completed.
    -- Stationary point found.
 Normal termination of Gaussian 16 at Fri May 24 09:29:26 2019.
