 Gaussian 16, Revision A.03,
 Gaussian 16:  ES64L-G16RevA.03 25-Dec-2016

 -------------------------------------------------------------------
 #p b3lyp 6-31g* opt freq=noraman scrf=(pcm,solvent=tetrahydrofuran)
 -------------------------------------------------------------------

 -----
 title
 -----
 Symbolic Z-matrix:
 Charge =  1 Multiplicity = 1

 SCF Done:  E(RB3LYP) =  -768.328478360     A.U. after   13 cycles
 Optimization completed.
    -- Stationary point found.
 Normal termination of Gaussian 16 at Fri May 24 08:35:02 2019.

 --------------------------------------------------------------------
 #P Geom=AllCheck Guess=TCheck SCRF=Check GenChk RB3LYP/6-31G(d) Freq
 --------------------------------------------------------------------

 Structure from the checkpoint file:  "/scratch/Gau-11942.chk"
 -----
 title
 -----
 Charge =  1 Multiplicity = 1

                         Standard orientation:
 ---------------------------------------------------------------------
 Center     Atomic      Atomic             Coordinates (Angstroms)
 Number     Number       Type             X           Y           Z
 ---------------------------------------------------------------------
      1          6           0        1.030396    0.585441    0.672025
      2          6           0        1.397280    0.517375   -0.853858
      3          6           0        0.489470   -0.357024   -1.658217
      4          6           0       -1.216435   -0.443511    0.049802
      5          6           0       -0.020779   -0.480807    1.010224
      6          1           0        0.806274   -0.692743   -2.647694
      7          1           0        1.142152    1.515700   -1.257847
      8          1           0        1.938452    0.367449    1.246388
      9          1           0       -1.838963   -1.329362    0.175438
     10          1           0       -0.389472   -0.307161    2.029083
     11          8           0       -0.680454   -0.689546   -1.344955
     12          8           0        2.738158    0.317890   -1.197984
     13          8           0        0.495267    1.838683    1.017914
     14          8           0        0.658123   -1.714360    0.891262
     15          6           0       -2.094667    0.811092    0.010128
     16          1           0       -2.407765    1.021438    1.043420
     17          1           0       -1.518062    1.669757   -0.338419
     18          8           0       -3.192630    0.652917   -0.855941
     19          6           0        3.305486   -0.956868   -0.851247
     20          1           0        3.262843   -1.142800    0.225825
     21          1           0        2.802289   -1.777861   -1.377095
     22          1           0        4.345115   -0.907848   -1.175705
     23          6           0        1.468594    2.874393    1.175085
     24          1           0        0.919999    3.767434    1.476936
     25          1           0        2.197331    2.606309    1.950185
     26          1           0        2.000870    3.079095    0.236714
     27          6           0        0.078982   -2.813847    1.600740
     28          1           0        0.766327   -3.651269    1.473884
     29          1           0       -0.019522   -2.576630    2.666993
     30          1           0       -0.901570   -3.094324    1.197454
     31          6           0       -4.328558    0.029805   -0.261710
     32          1           0       -4.120775   -1.000582    0.059335
     33          1           0       -4.686135    0.605636    0.602773
     34          1           0       -5.105727    0.006799   -1.027874
 ---------------------------------------------------------------------

 SCF Done:  E(RB3LYP) =  -768.328478360     A.U. after    1 cycles

 The electronic state is 1-A.
 Alpha  occ. eigenvalues --  -19.32477 -19.20754 -19.20244 -19.19873 -19.18336
 Alpha  occ. eigenvalues --  -10.39454 -10.31854 -10.31732 -10.30036 -10.29827
 Alpha  occ. eigenvalues --  -10.27921 -10.25888 -10.25884 -10.25577 -10.24830
 Alpha  occ. eigenvalues --   -1.21305  -1.09609  -1.08539  -1.07656  -1.06589
 Alpha  occ. eigenvalues --   -0.86907  -0.85320  -0.78109  -0.74925  -0.73922
 Alpha  occ. eigenvalues --   -0.71684  -0.70043  -0.68058  -0.66295  -0.61958
 Alpha  occ. eigenvalues --   -0.58903  -0.58776  -0.56742  -0.54358  -0.53987
 Alpha  occ. eigenvalues --   -0.53010  -0.51513  -0.50823  -0.50513  -0.49465
 Alpha  occ. eigenvalues --   -0.48439  -0.47776  -0.47149  -0.46013  -0.45749
 Alpha  occ. eigenvalues --   -0.45334  -0.43209  -0.42510  -0.41071  -0.40706
 Alpha  occ. eigenvalues --   -0.40023  -0.36970  -0.36737  -0.35891  -0.34837
 Alpha  occ. eigenvalues --   -0.33135  -0.31052  -0.29429  -0.28809
 Alpha virt. eigenvalues --   -0.14839   0.01190   0.03307   0.04430   0.06045
 Alpha virt. eigenvalues --    0.06554   0.07685   0.08488   0.09523   0.10417
 Alpha virt. eigenvalues --    0.10772   0.11857   0.12272   0.12698   0.13049

 Mulliken charges:
               1
     1  C    0.127534
     2  C    0.031166
     3  C    0.274734
     4  C    0.051035
     5  C    0.053998
     6  H    0.276710
     7  H    0.264820
     8  H    0.198447
     9  H    0.228756
    10  H    0.202874
    11  O   -0.297788
    12  O   -0.469885
    13  O   -0.491864
    14  O   -0.488844
    15  C   -0.044274
    16  H    0.182032
    17  H    0.192265
    18  O   -0.465643
    19  C   -0.239477
    20  H    0.179127
    21  H    0.164678
    22  H    0.195463
    23  C   -0.228596
    24  H    0.189990
    25  H    0.170423
    26  H    0.166012
    27  C   -0.225784
    28  H    0.191704
    29  H    0.172329
    30  H    0.166133
    31  C   -0.224866
    32  H    0.152528
    33  H    0.161045
    34  H    0.183218
 Sum of Mulliken charges =   1.00000

 Dipole moment (field-independent basis, Debye):
    X=              0.6807    Y=             -2.1491    Z=              0.4400  Tot=              2.2969
 Quadrupole moment (field-independent basis, Debye-Ang):
   XX=            -68.5778   YY=            -72.2800   ZZ=            -76.0946
   XY=              3.1056   XZ=             -5.3366   YZ=              0.8591

  Exact polarizability: 159.727   1.665 139.475  -5.625   3.206 129.924
 Approx polarizability: 174.140   3.537 156.686  -6.301   3.130 154.505

                      1                      2                      3
                      A                      A                      A
 Frequencies --     37.9065                49.3558                70.4747
 Red. masses --      3.7565                 2.4503                 3.0877
 Frc consts  --      0.0032                 0.0035                 0.0090
 IR Inten    --      0.3699                 1.6201                 2.2700

                      4                      5                      6
                      A                      A                      A
 Frequencies --     74.7282                97.1851               108.3055
 Red. masses --      2.9587                 2.1730                 2.6103
 Frc consts  --      0.0097                 0.0121                 0.0180
 IR Inten    --      1.6011                 2.3687                 8.9404

                      7                      8                      9
                      A                      A                      A
 Frequencies --    120.6474               129.3872               137.0014
 Red. masses --      2.2460                 1.4479                 1.7613
 Frc consts  --      0.0193                 0.0143                 0.0195
 IR Inten    --      2.8855                 0.2860                 0.4106

                     10                     11                     12
                      A                      A                      A
 Frequencies --    152.2907               170.3586               185.2180
 Red. masses --      2.0183                 1.5490                 1.5202
 Frc consts  --      0.0276                 0.0265                 0.0307
 IR Inten    --      6.1637                 1.7123                 1.6037

                     13                     14                     15
                      A                      A                      A
 Frequencies --    193.4473               221.6333               265.6495
 Red. masses --      1.9697                 2.2696                 3.3063
 Frc consts  --      0.0434                 0.0657                 0.1375
 IR Inten    --      7.0511                15.5476                 2.1335

                     16                     17                     18
                      A                      A                      A
 Frequencies --    280.7171               313.6937               344.6370
 Red. masses --      4.2467                 4.0481                 5.2831
 Frc consts  --      0.1972                 0.2347                 0.3697
 IR Inten    --      3.1325                 1.0174                 6.8915

                     19                     20                     21
                      A                      A                      A
 Frequencies --    353.7831               383.6177               423.5603
 Red. masses --      3.9743                 3.9674                 4.1321
 Frc consts  --      0.2931                 0.3440                 0.4368
 IR Inten    --      4.6900                24.2473                16.4151

                     22                     23                     24
                      A                      A                      A
 Frequencies --    447.7843               476.9709               527.9203
 Red. masses --      3.1491                 4.2038                 3.2532
 Frc consts  --      0.3720                 0.5635                 0.5342
 IR Inten    --      7.5376                 2.5956                11.3423

                     25                     26                     27
                      A                      A                      A
 Frequencies --    578.7748               601.1539               614.3157
 Red. masses --      3.7661                 4.2700                 4.7220
 Frc consts  --      0.7433                 0.9092                 1.0499
 IR Inten    --     38.8307                 2.9515                13.2710

                     28                     29                     30
                      A                      A                      A
 Frequencies --    676.0673               777.3779               890.5109
 Red. masses --      4.1347                 2.7557                 2.8526
 Frc consts  --      1.1135                 0.9812                 1.3328
 IR Inten    --     57.9826                14.6438                21.2222

                     31                     32                     33
                      A                      A                      A
 Frequencies --    924.5147               933.1849               952.1081
 Red. masses --      2.9354                 3.6540                 4.4142
 Frc consts  --      1.4782                 1.8748                 2.3576
 IR Inten    --     32.8429                 8.9764                70.8134

                     34                     35                     36
                      A                      A                      A
 Frequencies --    959.1418               995.8435              1010.0888
 Red. masses --      3.6264                 2.9260                 2.4706
 Frc consts  --      1.9656                 1.7096                 1.4852
 IR Inten    --     40.0596                23.1001                15.9328

                     37                     38                     39
                      A                      A                      A
 Frequencies --   1044.4097              1071.2934              1105.2289
 Red. masses --      3.6599                 2.5220                 2.4233
 Frc consts  --      2.3521                 1.7054                 1.7440
 IR Inten    --      3.9347                54.8717                43.7629

                     40                     41                     42
                      A                      A                      A
 Frequencies --   1113.3233              1136.4841              1144.7954
 Red. masses --      3.6475                 2.4376                 3.6964
 Frc consts  --      2.6637                 1.8550                 2.8542
 IR Inten    --     71.1887               152.2502               197.7080

                     43                     44                     45
                      A                      A                      A
 Frequencies --   1159.1825              1169.9119              1179.7567
 Red. masses --      3.3682                 3.7750                 1.2757
 Frc consts  --      2.6665                 3.0442                 1.0461
 IR Inten    --    260.4844                98.1978                 7.4350

                     46                     47                     48
                      A                      A                      A
 Frequencies --   1186.3865              1187.7401              1189.8363
 Red. masses --      1.2772                 1.3052                 1.3095
 Frc consts  --      1.0592                 1.0849                 1.0923
 IR Inten    --      2.9964                 5.8967                 7.4763

                     49                     50                     51
                      A                      A                      A
 Frequencies --   1217.6587              1221.9402              1227.3691
 Red. masses --      1.5058                 1.5521                 1.6953
 Frc consts  --      1.3154                 1.3654                 1.5047
 IR Inten    --     12.6676                48.9902               100.8634

                     52                     53                     54
                      A                      A                      A
 Frequencies --   1229.4589              1256.1717              1294.7151
 Red. masses --      1.6824                 1.7446                 1.3919
 Frc consts  --      1.4983                 1.6220                 1.3747
 IR Inten    --     37.9772                30.6006                33.1972

                     55                     56                     57
                      A                      A                      A
 Frequencies --   1314.6660              1323.9560              1340.6728
 Red. masses --      1.3066                 1.2146                 1.2898
 Frc consts  --      1.3306                 1.2543                 1.3659
 IR Inten    --     16.9294                 6.6943                 1.7367

                     58                     59                     60
                      A                      A                      A
 Frequencies --   1342.7069              1365.9722              1369.5161
 Red. masses --      1.2533                 1.2739                 1.3275
 Frc consts  --      1.3313                 1.4004                 1.4669
 IR Inten    --     23.3241                39.1888                25.1358

                     61                     62                     63
                      A                      A                      A
 Frequencies --   1406.4343              1413.3838              1433.4767
 Red. masses --      1.3105                 1.5253                 1.3015
 Frc consts  --      1.5273                 1.7952                 1.5758
 IR Inten    --     23.0012                13.4828                40.8256

                     64                     65                     66
                      A                      A                      A
 Frequencies --   1495.4268              1497.6235              1498.0971
 Red. masses --      1.1113                 1.1116                 1.1088
 Frc consts  --      1.4643                 1.4689                 1.4662
 IR Inten    --      2.4594                 1.2499                 3.5281

                     67                     68                     69
                      A                      A                      A
 Frequencies --   1499.9581              1511.9566              1512.6662
 Red. masses --      1.1193                 1.0817                 1.0538
 Frc consts  --      1.4837                 1.4569                 1.4206
 IR Inten    --      4.6568                15.6479                 2.2241

                     70                     71                     72
                      A                      A                      A
 Frequencies --   1513.9153              1515.5631              1519.0915
 Red. masses --      1.0528                 1.0639                 1.0785
 Frc consts  --      1.4217                 1.4398                 1.4664
 IR Inten    --     11.5712                 2.6283                13.0548

                     73                     74                     75
                      A                      A                      A
 Frequencies --   1523.1645              1524.5453              1526.0711
 Red. masses --      1.0586                 1.0647                 1.0734
 Frc consts  --      1.4471                 1.4580                 1.4728
 IR Inten    --     12.7979                26.6010                11.7229

                     76                     77                     78
                      A                      A                      A
 Frequencies --   1529.8013              1644.1756              2975.1806
 Red. masses --      1.0735                 6.1297                 1.0785
 Frc consts  --      1.4802                 9.7631                 5.6245
 IR Inten    --     11.1643               186.6142                25.0681

                     79                     80                     81
                      A                      A                      A
 Frequencies --   3017.2368              3032.5647              3036.9844
 Red. masses --      1.0373                 1.0352                 1.0697
 Frc consts  --      5.5637                 5.6093                 5.8128
 IR Inten    --     53.4599                52.0567                22.6541

                     82                     83                     84
                      A                      A                      A
 Frequencies --   3040.4003              3048.6338              3071.7588
 Red. masses --      1.0339                 1.0384                 1.0848
 Frc consts  --      5.6310                 5.6860                 6.0309
 IR Inten    --     50.0741                31.6817                22.5053

                     85                     86                     87
                      A                      A                      A
 Frequencies --   3074.6740              3077.4747              3095.2785
 Red. masses --      1.1048                 1.0859                 1.1057
 Frc consts  --      6.1536                 6.0597                 6.2413
 IR Inten    --     62.2251                19.8277                46.2241

                     88                     89                     90
                      A                      A                      A
 Frequencies --   3104.2069              3125.2349              3147.8058
 Red. masses --      1.1074                 1.0995                 1.0929
 Frc consts  --      6.2874                 6.3274                 6.3806
 IR Inten    --     47.5876                36.3749                 4.3840

                     91                     92                     93
                      A                      A                      A
 Frequencies --   3159.1548              3166.8220              3171.7014
 Red. masses --      1.0990                 1.0884                 1.1013
 Frc consts  --      6.4623                 6.4308                 6.5276
 IR Inten    --     27.4315                 6.7845                18.2910

                     94                     95                     96
                      A                      A                      A
 Frequencies --   3172.7485              3182.7480              3186.9288
 Red. masses --      1.1010                 1.1037                 1.0941
 Frc consts  --      6.5300                 6.5872                 6.5474
 IR Inten    --     20.3727                19.2355                 1.6228

 - Thermochemistry -
 -------------------
 Temperature   298.150 Kelvin.  Pressure   1.00000 Atm.
 Atom     1 has atomic number  6 and mass  12.00000

 Molecular mass:   219.12325 amu.
 Principal axes and moments of inertia in atomic units:
                           1         2         3
     Eigenvalues --  2379.173754180.647694801.15936
           X            0.99996   0.00673  -0.00620
           Y           -0.00677   0.99996  -0.00611
           Z            0.00616   0.00616   0.99996
 This molecule is an asymmetric top.
 Rotational symmetry number  1.
 Warning -- assumption of classical behavior for rotation
           may cause significant error
 Rotational temperatures (Kelvin)      0.03641     0.02072     0.01804
 Rotational constants (GHZ):           0.75856     0.43169     0.37590
 Zero-point vibrational energy     772341.4 (Joules/Mol)
                                  184.59402 (Kcal/Mol)
 Warning -- explicit consideration of  27 degrees of freedom as
           vibrations may cause significant error
 Vibrational temperatures:     54.54    71.01   101.40   107.52   139.83
          (Kelvin)            155.83   173.58   186.16   197.11   219.11
                              245.11   266.49   278.33   318.88   382.21
                              403.89   451.34   495.86   509.01   551.94
                              609.41   644.26   686.25   759.56   832.73
                              864.93   883.86   972.71  1118.47  1281.25
                             1330.17  1342.64  1369.87  1379.99  1432.80
                             1453.29  1502.67  1541.35  1590.18  1601.82
                             1635.15  1647.11  1667.81  1683.24  1697.41
                             1706.95  1708.89  1711.91  1751.94  1758.10
                             1765.91  1768.92  1807.35  1862.81  1891.51
                             1904.88  1928.93  1931.86  1965.33  1970.43
                             2023.55  2033.54  2062.45  2151.59  2154.75
                             2155.43  2158.11  2175.37  2176.39  2178.19
                             2180.56  2185.63  2191.49  2193.48  2195.68
                             2201.04  2365.60  4280.62  4341.13  4363.18
                             4369.54  4374.46  4386.30  4419.58  4423.77
                             4427.80  4453.42  4466.26  4496.52  4528.99
                             4545.32  4556.35  4563.37  4564.88  4579.26
                             4585.28

 Zero-point correction=                           0.294169 (Hartree/Particle)
 Thermal correction to Energy=                    0.311559
 Thermal correction to Enthalpy=                  0.312503
 Thermal correction to Gibbs Free Energy=         0.248537
 Sum of electronic and zero-point Energies=           -768.034309
 Sum of electronic and thermal Energies=              -768.016920
 Sum of electronic and thermal Enthalpies=            -768.015975
 Sum of electronic and thermal Free Energies=         -768.079942

                     E (Thermal)             CV                S
                      KCal/Mol        Cal/Mol-Kelvin    Cal/Mol-Kelvin
 Total                  195.506             61.678            134.629
 Electronic               0.000              0.000              0.000
 Translational            0.889              2.981             42.056
 Rotational               0.889              2.981             32.235
 Vibrational            193.729             55.716             60.337
 Vibration     1          0.594              1.982              5.366
 Vibration     2          0.595              1.978              4.843
 Vibration     3          0.598              1.968              4.140
 Vibration     4          0.599              1.966              4.025
 Vibration     5          0.603              1.951              3.510
 Vibration     6          0.606              1.943              3.299
 Vibration     7          0.609              1.932              3.090
 Vibration     8          0.612              1.924              2.955
 Vibration     9          0.614              1.916              2.845
 Vibration    10          0.619              1.900              2.643
 Vibration    11          0.625              1.879              2.432
 Vibration    12          0.631              1.860              2.275
 Vibration    13          0.635              1.849              2.195
 Vibration    14          0.648              1.808              1.946
 Vibration    15          0.671              1.736              1.624
 Vibration    16          0.680              1.709              1.529
 Vibration    17          0.702              1.648              1.343
 Vibration    18          0.723              1.586              1.191
 Vibration    19          0.730              1.567              1.149
 Vibration    20          0.753              1.505              1.025
 Vibration    21          0.786              1.419              0.880
 Vibration    22          0.807              1.366              0.803
 Vibration    23          0.834              1.301              0.718
 Vibration    24          0.883              1.188              0.592
 Vibration    25          0.935              1.077              0.488
 Vibration    26          0.959              1.029              0.448
 Vibration    27          0.974              1.002              0.426

 Optimization completed.
    -- Stationary point found.
 Normal termination of Gaussian 16 at Fri May 24 08:53:56 2019.
