 Gaussian 16, Revision A.03,
 Gaussian 16:  ES64L-G16RevA.03 25-Dec-2016

 -------------------------------------------------------------------
 #p b3lyp 6-31g* opt freq=noraman scrf=(pcm,solvent=tetrahydrofuran)
 -------------------------------------------------------------------

 -----
 title
 -----
 Symbolic Z-matrix:
 Charge =  1 Multiplicity = 1

 SCF Done:  E(RB3LYP) =  -768.327997254     A.U. after   13 cycles
 Optimization completed.
    -- Stationary point found.
 Normal termination of Gaussian 16 at Fri May 24 08:34:53 2019.

 --------------------------------------------------------------------
 #P Geom=AllCheck Guess=TCheck SCRF=Check GenChk RB3LYP/6-31G(d) Freq
 --------------------------------------------------------------------

 Structure from the checkpoint file:  "/scratch/Gau-188413.chk"
 -----
 title
 -----
 Charge =  1 Multiplicity = 1

                         Standard orientation:
 ---------------------------------------------------------------------
 Center     Atomic      Atomic             Coordinates (Angstroms)
 Number     Number       Type             X           Y           Z
 ---------------------------------------------------------------------
      1          6           0       -0.612341    0.674448   -0.636183
      2          6           0       -1.423308    0.764409    0.705297
      3          6           0       -1.088798   -0.302328    1.695976
      4          6           0        0.935276   -0.968148    0.568122
      5          6           0        0.149497   -0.658250   -0.708041
      6          1           0       -1.764714   -0.488957    2.533093
      7          1           0       -1.025955    1.657494    1.225959
      8          1           0       -1.332789    0.694148   -1.462392
      9          1           0        1.272353   -2.004721    0.571102
     10          1           0        0.863046   -0.617515   -1.538859
     11          8           0       -0.026404   -0.973654    1.724821
     12          8           0       -2.804142    0.970314    0.626670
     13          8           0        0.314960    1.725590   -0.748887
     14          8           0       -0.850867   -1.642149   -0.892712
     15          6           0        2.110828   -0.059812    0.932924
     16          1           0        2.495250   -0.345995    1.923686
     17          1           0        1.800309    0.991786    0.962141
     18          8           0        3.059222   -0.291605   -0.083002
     19          6           0       -3.572133   -0.099519    0.049516
     20          1           0       -3.459143   -1.028745    0.622077
     21          1           0       -4.610112    0.229899    0.098813
     22          1           0       -3.292217   -0.285938   -0.991365
     23          6           0       -0.262403    2.977537   -1.126258
     24          1           0        0.565674    3.680714   -1.223952
     25          1           0       -0.788511    2.888391   -2.085101
     26          1           0       -0.962532    3.349628   -0.366028
     27          6           0       -0.425687   -2.830465   -1.566733
     28          1           0       -1.309879   -3.463350   -1.654280
     29          1           0       -0.042654   -2.591296   -2.566182
     30          1           0        0.345769   -3.369933   -1.003570
     31          6           0        4.213634    0.532233    0.043641
     32          1           0        4.876809    0.269198   -0.782513
     33          1           0        3.950807    1.596809   -0.024101
     34          1           0        4.728963    0.349781    0.996789
 ---------------------------------------------------------------------

 SCF Done:  E(RB3LYP) =  -768.327997254     A.U. after    1 cycles

 The electronic state is 1-A.
 Alpha  occ. eigenvalues --  -19.32946 -19.20829 -19.19905 -19.19674 -19.18493
 Alpha  occ. eigenvalues --  -10.39776 -10.31931 -10.31784 -10.29708 -10.29538
 Alpha  occ. eigenvalues --  -10.27687 -10.25942 -10.25643 -10.25478 -10.24660
 Alpha  occ. eigenvalues --   -1.21751  -1.09594  -1.08370  -1.07434  -1.06747
 Alpha  occ. eigenvalues --   -0.87096  -0.85384  -0.78139  -0.74964  -0.73727
 Alpha  occ. eigenvalues --   -0.71171  -0.69360  -0.68190  -0.66533  -0.62079
 Alpha  occ. eigenvalues --   -0.59086  -0.58811  -0.56623  -0.54303  -0.54028
 Alpha  occ. eigenvalues --   -0.52795  -0.51468  -0.50503  -0.50337  -0.49318
 Alpha  occ. eigenvalues --   -0.48454  -0.47816  -0.47169  -0.46157  -0.45625
 Alpha  occ. eigenvalues --   -0.45207  -0.43055  -0.42464  -0.41116  -0.40714
 Alpha  occ. eigenvalues --   -0.39399  -0.36912  -0.36328  -0.36057  -0.35209
 Alpha  occ. eigenvalues --   -0.33060  -0.30512  -0.29340  -0.28647
 Alpha virt. eigenvalues --   -0.15143   0.00633   0.03425   0.04880   0.06536
 Alpha virt. eigenvalues --    0.06886   0.08370   0.08719   0.09676   0.10692
 Alpha virt. eigenvalues --    0.11657   0.11859   0.12327   0.12971   0.13277

 Mulliken charges:
               1
     1  C    0.127139
     2  C    0.028703
     3  C    0.275291
     4  C    0.055469
     5  C    0.057089
     6  H    0.279131
     7  H    0.265790
     8  H    0.197032
     9  H    0.235380
    10  H    0.209211
    11  O   -0.307405
    12  O   -0.468870
    13  O   -0.487394
    14  O   -0.492870
    15  C   -0.016142
    16  H    0.170366
    17  H    0.172745
    18  O   -0.481464
    19  C   -0.239015
    20  H    0.164428
    21  H    0.195850
    22  H    0.179945
    23  C   -0.228475
    24  H    0.188913
    25  H    0.169645
    26  H    0.164033
    27  C   -0.223807
    28  H    0.188626
    29  H    0.172180
    30  H    0.165039
    31  C   -0.210288
    32  H    0.179426
    33  H    0.157767
    34  H    0.156532
 Sum of Mulliken charges =   1.00000

 Dipole moment (field-independent basis, Debye):
    X=             -1.4406    Y=             -0.8288    Z=              2.6775  Tot=              3.1514
 Quadrupole moment (field-independent basis, Debye-Ang):
   XX=            -67.3289   YY=            -71.9890   ZZ=            -73.5744
   XY=              4.2941   XZ=              0.2941   YZ=             -0.0017

  Exact polarizability: 158.645  -0.143 140.462  -3.546  -1.936 128.898
 Approx polarizability: 172.065  -4.338 159.476  -4.388  -2.212 151.526

                      1                      2                      3
                      A                      A                      A
 Frequencies --     48.2639                62.6116                64.7008
 Red. masses --      3.5610                 3.3888                 3.1574
 Frc consts  --      0.0049                 0.0078                 0.0078
 IR Inten    --      0.3527                 3.8650                 3.2829

                      4                      5                      6
                      A                      A                      A
 Frequencies --     78.9648                90.0854               100.9207
 Red. masses --      2.6872                 3.0666                 2.6048
 Frc consts  --      0.0099                 0.0147                 0.0156
 IR Inten    --      1.6563                 7.8428                 2.4636

                      7                      8                      9
                      A                      A                      A
 Frequencies --    119.5158               146.4814               156.3619
 Red. masses --      2.5367                 2.6129                 1.8292
 Frc consts  --      0.0213                 0.0330                 0.0263
 IR Inten    --      3.6868                 6.5719                 5.4634

                     10                     11                     12
                      A                      A                      A
 Frequencies --    174.4046               183.2303               188.7562
 Red. masses --      1.5647                 1.2116                 1.5585
 Frc consts  --      0.0280                 0.0240                 0.0327
 IR Inten    --      0.7558                 0.8085                 1.9233

                     13                     14                     15
                      A                      A                      A
 Frequencies --    201.1844               232.3338               274.5972
 Red. masses --      1.6281                 1.7710                 3.0591
 Frc consts  --      0.0388                 0.0563                 0.1359
 IR Inten    --      3.1357                 9.6546                 2.0687

                     16                     17                     18
                      A                      A                      A
 Frequencies --    280.3119               318.1944               328.3143
 Red. masses --      3.7147                 3.2262                 4.3348
 Frc consts  --      0.1720                 0.1925                 0.2753
 IR Inten    --      1.5243                 5.4227                12.3972

                     19                     20                     21
                      A                      A                      A
 Frequencies --    346.1655               373.8342               393.5584
 Red. masses --      3.8643                 4.3191                 5.2507
 Frc consts  --      0.2728                 0.3556                 0.4792
 IR Inten    --      4.0870                14.4404                10.6324

                     22                     23                     24
                      A                      A                      A
 Frequencies --    426.8343               472.6465               523.8975
 Red. masses --      4.3824                 4.0877                 4.3606
 Frc consts  --      0.4704                 0.5380                 0.7052
 IR Inten    --     22.0855                 7.9457                 9.7160

                     25                     26                     27
                      A                      A                      A
 Frequencies --    570.6183               598.5252               629.1289
 Red. masses --      4.4022                 4.0957                 4.0536
 Frc consts  --      0.8445                 0.8645                 0.9453
 IR Inten    --     14.9479                 0.0519                24.1897

                     28                     29                     30
                      A                      A                      A
 Frequencies --    738.8288               786.7593               856.9374
 Red. masses --      4.0394                 2.7429                 2.6915
 Frc consts  --      1.2992                 1.0003                 1.1645
 IR Inten    --     68.0599                 3.0276                12.5036

                     31                     32                     33
                      A                      A                      A
 Frequencies --    912.6142               951.2853               964.9887
 Red. masses --      3.2969                 4.7173                 3.4346
 Frc consts  --      1.6178                 2.5152                 1.8844
 IR Inten    --      5.4218                81.8591                68.9504

                     34                     35                     36
                      A                      A                      A
 Frequencies --    982.5504               996.9807              1027.5292
 Red. masses --      2.3237                 4.1454                 2.6684
 Frc consts  --      1.3217                 2.4277                 1.6599
 IR Inten    --     11.9492                14.9232                13.2870

                     37                     38                     39
                      A                      A                      A
 Frequencies --   1059.1974              1086.2145              1113.1317
 Red. masses --      2.9952                 2.1534                 3.5440
 Frc consts  --      1.9798                 1.4969                 2.5872
 IR Inten    --      8.1199                92.7203                58.3549

                     40                     41                     42
                      A                      A                      A
 Frequencies --   1135.7847              1138.5235              1152.6922
 Red. masses --      2.4823                 2.0095                 3.3336
 Frc consts  --      1.8867                 1.5347                 2.6097
 IR Inten    --     52.4364                97.7098               266.7085

                     43                     44                     45
                      A                      A                      A
 Frequencies --   1160.1018              1170.7371              1180.8694
 Red. masses --      4.4303                 3.4294                 1.3014
 Frc consts  --      3.5130                 2.7694                 1.0692
 IR Inten    --    256.0191                75.7510                12.7748

                     46                     47                     48
                      A                      A                      A
 Frequencies --   1186.9952              1188.8646              1190.0129
 Red. masses --      1.3020                 1.2969                 1.3279
 Frc consts  --      1.0808                 1.0800                 1.1079
 IR Inten    --      8.6705                 5.8185                17.3182

                     49                     50                     51
                      A                      A                      A
 Frequencies --   1219.5373              1222.6705              1230.1371
 Red. masses --      1.4976                 1.5499                 1.6886
 Frc consts  --      1.3123                 1.3651                 1.5055
 IR Inten    --     15.0033                61.9247                35.5492

                     52                     53                     54
                      A                      A                      A
 Frequencies --   1235.5456              1252.6125              1260.0431
 Red. masses --      1.6684                 1.8025                 1.2190
 Frc consts  --      1.5006                 1.6663                 1.1403
 IR Inten    --     30.3114                42.2456                 6.9536

                     55                     56                     57
                      A                      A                      A
 Frequencies --   1307.5525              1334.4457              1340.0846
 Red. masses --      1.4179                 1.2570                 1.2957
 Frc consts  --      1.4283                 1.3188                 1.3709
 IR Inten    --     25.2317                22.6700                 0.8752

                     58                     59                     60
                      A                      A                      A
 Frequencies --   1354.0352              1366.7683              1387.2655
 Red. masses --      1.3073                 1.3330                 1.3169
 Frc consts  --      1.4122                 1.4671                 1.4932
 IR Inten    --     14.4920                16.6032                33.6895

                     61                     62                     63
                      A                      A                      A
 Frequencies --   1415.9616              1430.3986              1452.3172
 Red. masses --      1.3559                 1.5082                 1.2904
 Frc consts  --      1.6017                 1.8181                 1.6036
 IR Inten    --     39.2260                 6.5819                33.3300

                     64                     65                     66
                      A                      A                      A
 Frequencies --   1498.4606              1499.1812              1501.7334
 Red. masses --      1.1265                 1.1198                 1.1497
 Frc consts  --      1.4903                 1.4828                 1.5276
 IR Inten    --      1.7680                 1.4026                 2.1772

                     67                     68                     69
                      A                      A                      A
 Frequencies --   1502.6251              1509.2086              1512.3386
 Red. masses --      1.1102                 1.0470                 1.0579
 Frc consts  --      1.4769                 1.4051                 1.4255
 IR Inten    --      5.6682                 7.9635                 5.8277

                     70                     71                     72
                      A                      A                      A
 Frequencies --   1514.8498              1516.3514              1520.1326
 Red. masses --      1.0508                 1.0608                 1.0782
 Frc consts  --      1.4207                 1.4371                 1.4680
 IR Inten    --      3.9566                15.1890                16.0385

                     73                     74                     75
                      A                      A                      A
 Frequencies --   1525.2104              1527.0346              1528.1443
 Red. masses --      1.0617                 1.0658                 1.0656
 Frc consts  --      1.4551                 1.4643                 1.4661
 IR Inten    --      7.3347                33.5155                 5.6859

                     76                     77                     78
                      A                      A                      A
 Frequencies --   1556.4422              1641.7415              2969.9061
 Red. masses --      1.0848                 6.0893                 1.0779
 Frc consts  --      1.5484                 9.6701                 5.6015
 IR Inten    --      5.3868               195.8428                24.0559

                     79                     80                     81
                      A                      A                      A
 Frequencies --   3019.3368              3024.5611              3028.9628
 Red. masses --      1.0539                 1.0434                 1.0360
 Frc consts  --      5.6607                 5.6240                 5.6003
 IR Inten    --     39.3091                75.3677                50.1330

                     82                     83                     84
                      A                      A                      A
 Frequencies --   3040.9526              3046.2627              3075.9712
 Red. masses --      1.0336                 1.0389                 1.0855
 Frc consts  --      5.6315                 5.6800                 6.0514
 IR Inten    --     53.8668                28.8873                30.6051

                     85                     86                     87
                      A                      A                      A
 Frequencies --   3077.9596              3087.9255              3091.6365
 Red. masses --      1.1038                 1.1010                 1.1023
 Frc consts  --      6.1612                 6.1855                 6.2077
 IR Inten    --     74.4559                 4.0968                53.6135

                     88                     89                     90
                      A                      A                      A
 Frequencies --   3093.0790              3105.0341              3123.5996
 Red. masses --      1.0896                 1.1056                 1.0991
 Frc consts  --      6.1421                 6.2802                 6.3183
 IR Inten    --      3.3537                41.3185                36.6812

                     91                     92                     93
                      A                      A                      A
 Frequencies --   3159.3608              3159.9205              3170.6187
 Red. masses --      1.0877                 1.0999                 1.1018
 Frc consts  --      6.3964                 6.4710                 6.5257
 IR Inten    --      4.3689                24.8832                20.1143

                     94                     95                     96
                      A                      A                      A
 Frequencies --   3172.3187              3183.1535              3189.6236
 Red. masses --      1.1005                 1.1036                 1.0943
 Frc consts  --      6.5254                 6.5881                 6.5596
 IR Inten    --     21.2788                18.4830                 2.2560

 - Thermochemistry -
 -------------------
 Temperature   298.150 Kelvin.  Pressure   1.00000 Atm.
 Atom     1 has atomic number  6 and mass  12.00000

 Molecular mass:   219.12325 amu.
 Principal axes and moments of inertia in atomic units:
                           1         2         3
     Eigenvalues --  2349.185953986.789624744.52060
           X            0.99977   0.01892   0.01027
           Y           -0.01909   0.99967   0.01729
           Z           -0.00994  -0.01748   0.99980
 This molecule is an asymmetric top.
 Rotational symmetry number  1.
 Warning -- assumption of classical behavior for rotation
           may cause significant error
 Rotational temperatures (Kelvin)      0.03687     0.02173     0.01826
 Rotational constants (GHZ):           0.76824     0.45268     0.38038
 Zero-point vibrational energy     773679.2 (Joules/Mol)
                                  184.91376 (Kcal/Mol)
 Warning -- explicit consideration of  26 degrees of freedom as
           vibrations may cause significant error
 Vibrational temperatures:     69.44    90.08    93.09   113.61   129.61
          (Kelvin)            145.20   171.96   210.75   224.97   250.93
                              263.63   271.58   289.46   334.28   395.08
                              403.31   457.81   472.37   498.05   537.86
                              566.24   614.12   680.03   753.77   820.99
                              861.14   905.18  1063.01  1131.97  1232.94
                             1313.05  1368.69  1388.40  1413.67  1434.43
                             1478.39  1523.95  1562.82  1601.55  1634.14
                             1638.08  1658.47  1669.13  1684.43  1699.01
                             1707.82  1710.51  1712.16  1754.64  1759.15
                             1769.89  1777.67  1802.23  1812.92  1881.28
                             1919.97  1928.08  1948.15  1966.47  1995.97
                             2037.25  2058.02  2089.56  2155.95  2156.99
                             2160.66  2161.94  2171.41  2175.92  2179.53
                             2181.69  2187.13  2194.44  2197.06  2198.66
                             2239.37  2362.10  4273.03  4344.15  4351.67
                             4358.00  4375.25  4382.89  4425.64  4428.50
                             4442.84  4448.18  4450.25  4467.45  4494.16
                             4545.62  4546.42  4561.81  4564.26  4579.85
                             4589.16

 Zero-point correction=                           0.294679 (Hartree/Particle)
 Thermal correction to Energy=                    0.311929
 Thermal correction to Enthalpy=                  0.312873
 Thermal correction to Gibbs Free Energy=         0.249655
 Sum of electronic and zero-point Energies=           -768.033318
 Sum of electronic and thermal Energies=              -768.016068
 Sum of electronic and thermal Enthalpies=            -768.015124
 Sum of electronic and thermal Free Energies=         -768.078342

                     E (Thermal)             CV                S
                      KCal/Mol        Cal/Mol-Kelvin    Cal/Mol-Kelvin
 Total                  195.739             61.491            133.054
 Electronic               0.000              0.000              0.000
 Translational            0.889              2.981             42.056
 Rotational               0.889              2.981             32.163
 Vibrational            193.961             55.529             58.834
 Vibration     1          0.595              1.978              4.887
 Vibration     2          0.597              1.972              4.373
 Vibration     3          0.597              1.971              4.308
 Vibration     4          0.600              1.963              3.916
 Vibration     5          0.602              1.956              3.658
 Vibration     6          0.604              1.948              3.436
 Vibration     7          0.609              1.933              3.108
 Vibration     8          0.617              1.906              2.717
 Vibration     9          0.620              1.896              2.593
 Vibration    10          0.627              1.874              2.387
 Vibration    11          0.631              1.863              2.295
 Vibration    12          0.633              1.855              2.240
 Vibration    13          0.638              1.838              2.122
 Vibration    14          0.653              1.791              1.861
 Vibration    15          0.677              1.720              1.567
 Vibration    16          0.680              1.710              1.532
 Vibration    17          0.705              1.639              1.319
 Vibration    18          0.712              1.619              1.268
 Vibration    19          0.724              1.583              1.184
 Vibration    20          0.745              1.526              1.064
 Vibration    21          0.761              1.484              0.987
 Vibration    22          0.789              1.412              0.869
 Vibration    23          0.830              1.311              0.730
 Vibration    24          0.879              1.197              0.601
 Vibration    25          0.927              1.095              0.503
 Vibration    26          0.957              1.035              0.452

 Optimization completed.
    -- Stationary point found.
 Normal termination of Gaussian 16 at Fri May 24 08:53:48 2019.
