 Gaussian 16, Revision A.03,
 Gaussian 16:  ES64L-G16RevA.03 25-Dec-2016

 -------------------------------------------------------------------
 #p b3lyp 6-31g* opt freq=noraman scrf=(pcm,solvent=tetrahydrofuran)
 -------------------------------------------------------------------

 -----
 title
 -----
 Symbolic Z-matrix:
 Charge =  1 Multiplicity = 1

 SCF Done:  E(RB3LYP) =  -768.323518196     A.U. after   14 cycles
 Optimization completed.
    -- Stationary point found.
 Normal termination of Gaussian 16 at Fri May 24 08:33:45 2019.

 --------------------------------------------------------------------
 #P Geom=AllCheck Guess=TCheck SCRF=Check GenChk RB3LYP/6-31G(d) Freq
 --------------------------------------------------------------------

 Structure from the checkpoint file:  "/scratch/Gau-7177.chk"
 -----
 title
 -----
 Charge =  1 Multiplicity = 1

                         Standard orientation:
 ---------------------------------------------------------------------
 Center     Atomic      Atomic             Coordinates (Angstroms)
 Number     Number       Type             X           Y           Z
 ---------------------------------------------------------------------
      1          6           0       -0.844480    0.029396    0.591347
      2          6           0       -0.650339   -0.865543   -0.676916
      3          6           0       -0.035252   -0.121497   -1.805893
      4          6           0        1.377760    1.141500   -0.316226
      5          6           0        0.293175    1.077515    0.783534
      6          1           0       -0.320310   -0.333568   -2.838442
      7          1           0        0.135324   -1.588186   -0.395847
      8          1           0       -1.788896    0.575666    0.478089
      9          1           0        1.684197    2.174370   -0.476865
     10          1           0        0.810464    0.762554    1.692820
     11          8           0        0.850013    0.762927   -1.681788
     12          8           0       -1.752409   -1.611694   -1.114547
     13          8           0       -0.870558   -0.755299    1.756176
     14          8           0       -0.205117    2.366513    1.091781
     15          6           0        2.615445    0.293828   -0.080049
     16          1           0        3.126478    0.713839    0.800244
     17          1           0        3.296797    0.383970   -0.939028
     18          8           0        2.221919   -1.042397    0.129116
     19          6           0       -2.943466   -0.876108   -1.434256
     20          1           0       -3.546558   -1.539338   -2.055244
     21          1           0       -3.508886   -0.614060   -0.534147
     22          1           0       -2.721629    0.039656   -1.999894
     23          6           0       -2.126715   -1.359257    2.075590
     24          1           0       -1.998058   -1.818678    3.057194
     25          1           0       -2.920540   -0.602920    2.134535
     26          1           0       -2.403449   -2.129258    1.347724
     27          6           0       -0.895056    3.069663    0.060975
     28          1           0       -1.171710    4.033532    0.490636
     29          1           0       -0.260209    3.249080   -0.817494
     30          1           0       -1.810347    2.554543   -0.260629
     31          6           0        3.320566   -1.917101    0.386525
     32          1           0        2.899630   -2.912433    0.534809
     33          1           0        4.016001   -1.934395   -0.462923
     34          1           0        3.861078   -1.609142    1.290773
 ---------------------------------------------------------------------

 SCF Done:  E(RB3LYP) =  -768.323518196     A.U. after    1 cycles

 The electronic state is 1-A.
 Alpha  occ. eigenvalues --  -19.32921 -19.20821 -19.19667 -19.19277 -19.18948
 Alpha  occ. eigenvalues --  -10.39532 -10.32249 -10.31262 -10.29907 -10.29708
 Alpha  occ. eigenvalues --  -10.28587 -10.26399 -10.25695 -10.25266 -10.24827
 Alpha  occ. eigenvalues --   -1.21665  -1.09512  -1.07999  -1.07650  -1.06546
 Alpha  occ. eigenvalues --   -0.87202  -0.85251  -0.77983  -0.75455  -0.74041
 Alpha  occ. eigenvalues --   -0.71969  -0.69422  -0.67793  -0.66718  -0.62080
 Alpha  occ. eigenvalues --   -0.59180  -0.58905  -0.57018  -0.54148  -0.53919
 Alpha  occ. eigenvalues --   -0.52571  -0.51699  -0.51285  -0.50737  -0.49022
 Alpha  occ. eigenvalues --   -0.48308  -0.48173  -0.46976  -0.46574  -0.45551
 Alpha  occ. eigenvalues --   -0.44238  -0.43353  -0.42979  -0.41719  -0.40853
 Alpha  occ. eigenvalues --   -0.39973  -0.37305  -0.36335  -0.35435  -0.35014
 Alpha  occ. eigenvalues --   -0.32859  -0.30439  -0.30021  -0.28305
 Alpha virt. eigenvalues --   -0.15163   0.00599   0.03481   0.05003   0.06015
 Alpha virt. eigenvalues --    0.06360   0.08301   0.08801   0.08993   0.09659
 Alpha virt. eigenvalues --    0.11179   0.11352   0.12149   0.12548   0.13243

 Mulliken charges:
               1
     1  C    0.120154
     2  C    0.021992
     3  C    0.271446
     4  C    0.004222
     5  C    0.096527
     6  H    0.279545
     7  H    0.280185
     8  H    0.181776
     9  H    0.246955
    10  H    0.223668
    11  O   -0.305497
    12  O   -0.471332
    13  O   -0.484912
    14  O   -0.476286
    15  C   -0.030590
    16  H    0.191150
    17  H    0.184220
    18  O   -0.487769
    19  C   -0.244431
    20  H    0.200844
    21  H    0.178930
    22  H    0.161913
    23  C   -0.230392
    24  H    0.183974
    25  H    0.161165
    26  H    0.171045
    27  C   -0.246949
    28  H    0.196529
    29  H    0.159069
    30  H    0.161542
    31  C   -0.214014
    32  H    0.185215
    33  H    0.163525
    34  H    0.166582
 Sum of Mulliken charges =   1.00000

 Dipole moment (field-independent basis, Debye):
    X=              0.8170    Y=              1.2276    Z=             -5.0133  Tot=              5.2257
 Quadrupole moment (field-independent basis, Debye-Ang):
   XX=            -56.6703   YY=            -78.8231   ZZ=            -77.6500
   XY=             -1.6103   XZ=              2.1433   YZ=             -4.6889

  Exact polarizability: 151.741   7.506 141.316   1.684  -2.770 135.777
 Approx polarizability: 163.588  11.048 163.187   2.415  -3.116 161.835

                      1                      2                      3
                      A                      A                      A
 Frequencies --     41.7651                55.6917                82.6945
 Red. masses --      3.5854                 3.3111                 2.7023
 Frc consts  --      0.0037                 0.0061                 0.0109
 IR Inten    --      0.5011                 2.7844                 4.3041

                      4                      5                      6
                      A                      A                      A
 Frequencies --     94.7966               104.9589               128.4646
 Red. masses --      3.9167                 2.2156                 3.5080
 Frc consts  --      0.0207                 0.0144                 0.0341
 IR Inten    --      0.0834                 9.0870                 6.2136

                      7                      8                      9
                      A                      A                      A
 Frequencies --    161.9546               171.7070               190.5256
 Red. masses --      2.8863                 2.0874                 2.3946
 Frc consts  --      0.0446                 0.0363                 0.0512
 IR Inten    --      1.4743                 0.2475                 5.8386

                     10                     11                     12
                      A                      A                      A
 Frequencies --    197.4424               224.1329               229.9749
 Red. masses --      1.6419                 1.7640                 1.8864
 Frc consts  --      0.0377                 0.0522                 0.0588
 IR Inten    --      3.2267                 9.7714                 3.9413

                     13                     14                     15
                      A                      A                      A
 Frequencies --    247.9256               259.4438               276.3395
 Red. masses --      2.2057                 2.1243                 1.4749
 Frc consts  --      0.0799                 0.0842                 0.0664
 IR Inten    --      3.5814                 2.7960                 3.0111

                     16                     17                     18
                      A                      A                      A
 Frequencies --    311.6786               322.0649               331.4821
 Red. masses --      3.0787                 2.9906                 3.6824
 Frc consts  --      0.1762                 0.1828                 0.2384
 IR Inten    --      5.2903                 4.1627                 6.4551

                     19                     20                     21
                      A                      A                      A
 Frequencies --    345.0012               369.8288               413.7577
 Red. masses --      2.2254                 4.6921                 3.7259
 Frc consts  --      0.1561                 0.3781                 0.3758
 IR Inten    --      9.3627                 4.3596                 5.4909

                     22                     23                     24
                      A                      A                      A
 Frequencies --    431.4353               497.4097               517.0349
 Red. masses --      3.9519                 4.6327                 3.7160
 Frc consts  --      0.4334                 0.6753                 0.5853
 IR Inten    --      8.7702                 2.0417                26.4533

                     25                     26                     27
                      A                      A                      A
 Frequencies --    580.7287               612.3683               667.0176
 Red. masses --      4.5126                 3.3811                 4.7012
 Frc consts  --      0.8967                 0.7470                 1.2323
 IR Inten    --      6.3110                10.2161                22.9910

                     28                     29                     30
                      A                      A                      A
 Frequencies --    738.0882               763.6709               848.3526
 Red. masses --      4.4429                 3.5717                 2.6411
 Frc consts  --      1.4261                 1.2273                 1.1199
 IR Inten    --     72.1212                23.9797                37.3091

                     31                     32                     33
                      A                      A                      A
 Frequencies --    891.4223               928.9132               946.2892
 Red. masses --      3.7597                 3.3684                 3.3299
 Frc consts  --      1.7602                 1.7125                 1.7568
 IR Inten    --      5.5668                29.3154                13.2029

                     34                     35                     36
                      A                      A                      A
 Frequencies --    974.8202               997.9644              1042.2537
 Red. masses --      2.9308                 4.0893                 3.3612
 Frc consts  --      1.6409                 2.3995                 2.1513
 IR Inten    --     36.9943                 0.3865               109.3310

                     37                     38                     39
                      A                      A                      A
 Frequencies --   1045.9251              1070.4540              1087.4554
 Red. masses --      3.1539                 2.3832                 2.9283
 Frc consts  --      2.0328                 1.6090                 2.0403
 IR Inten    --    128.2357                 6.5190                53.0319

                     40                     41                     42
                      A                      A                      A
 Frequencies --   1121.3618              1139.2979              1149.5326
 Red. masses --      3.6851                 3.3018                 4.8230
 Frc consts  --      2.7302                 2.5251                 3.7550
 IR Inten    --     62.8467               157.5122               199.1589

                     43                     44                     45
                      A                      A                      A
 Frequencies --   1162.1987              1170.0626              1181.4779
 Red. masses --      2.9407                 2.9386                 1.2719
 Frc consts  --      2.3403                 2.3704                 1.0461
 IR Inten    --     70.0582               177.0419                 6.9557

                     46                     47                     48
                      A                      A                      A
 Frequencies --   1187.0027              1190.7179              1199.8802
 Red. masses --      1.4199                 1.2916                 1.2803
 Frc consts  --      1.1787                 1.0789                 1.0860
 IR Inten    --     24.3551                 4.3535                12.5819

                     49                     50                     51
                      A                      A                      A
 Frequencies --   1227.5056              1232.3634              1234.9524
 Red. masses --      1.5912                 1.6625                 1.5095
 Frc consts  --      1.4126                 1.4876                 1.3564
 IR Inten    --     39.1351                65.7318                38.7013

                     52                     53                     54
                      A                      A                      A
 Frequencies --   1240.8164              1250.1580              1282.9922
 Red. masses --      1.5279                 1.4255                 1.0874
 Frc consts  --      1.3860                 1.3127                 1.0546
 IR Inten    --     20.8197                17.2857                 8.1504

                     55                     56                     57
                      A                      A                      A
 Frequencies --   1298.6230              1319.6272              1327.8912
 Red. masses --      1.2716                 1.2726                 1.2701
 Frc consts  --      1.2635                 1.3057                 1.3195
 IR Inten    --     25.3671                35.7526                10.7829

                     58                     59                     60
                      A                      A                      A
 Frequencies --   1356.2901              1367.2368              1404.9022
 Red. masses --      1.3622                 1.2734                 1.2743
 Frc consts  --      1.4764                 1.4025                 1.4819
 IR Inten    --      3.2710                22.2630                68.4007

                     61                     62                     63
                      A                      A                      A
 Frequencies --   1412.0483              1425.1634              1440.2269
 Red. masses --      1.3828                 1.3654                 1.2935
 Frc consts  --      1.6245                 1.6340                 1.5808
 IR Inten    --     30.0138                20.6569                13.0376

                     64                     65                     66
                      A                      A                      A
 Frequencies --   1494.5203              1502.0028              1508.4617
 Red. masses --      1.1416                 1.1470                 1.0920
 Frc consts  --      1.5023                 1.5246                 1.4640
 IR Inten    --      3.4373                 1.7472                 2.1229

                     67                     68                     69
                      A                      A                      A
 Frequencies --   1510.3058              1514.3304              1516.0524
 Red. masses --      1.0467                 1.1067                 1.0958
 Frc consts  --      1.4067                 1.4953                 1.4839
 IR Inten    --     10.7799                 2.0996                 6.1604

                     70                     71                     72
                      A                      A                      A
 Frequencies --   1523.8321              1524.4593              1533.1318
 Red. masses --      1.0549                 1.0495                 1.0489
 Frc consts  --      1.4433                 1.4371                 1.4525
 IR Inten    --     11.4437                11.2811                22.7902

                     73                     74                     75
                      A                      A                      A
 Frequencies --   1536.6378              1540.0599              1544.3503
 Red. masses --      1.0626                 1.0617                 1.0928
 Frc consts  --      1.4783                 1.4836                 1.5356
 IR Inten    --     22.6425                 4.1349                 9.2260

                     76                     77                     78
                      A                      A                      A
 Frequencies --   1548.6141              1644.0105              3006.9678
 Red. masses --      1.0550                 6.0728                 1.0777
 Frc consts  --      1.4907                 9.6704                 5.7414
 IR Inten    --     10.4823               193.0666                42.2570

                     79                     80                     81
                      A                      A                      A
 Frequencies --   3018.6847              3030.0877              3033.2272
 Red. masses --      1.0545                 1.0365                 1.0359
 Frc consts  --      5.6615                 5.6069                 5.6153
 IR Inten    --     31.6504                24.7256                91.4665

                     82                     83                     84
                      A                      A                      A
 Frequencies --   3034.1697              3039.7607              3056.6787
 Red. masses --      1.0391                 1.0401                 1.1070
 Frc consts  --      5.6363                 5.6623                 6.0940
 IR Inten    --     28.1016                41.9537                36.9595

                     85                     86                     87
                      A                      A                      A
 Frequencies --   3058.7116              3086.4064              3093.4246
 Red. masses --      1.0822                 1.1033                 1.1074
 Frc consts  --      5.9654                 6.1923                 6.2436
 IR Inten    --     25.3632                69.8346                44.8796

                     88                     89                     90
                      A                      A                      A
 Frequencies --   3109.7573              3115.6496              3123.7442
 Red. masses --      1.1012                 1.0987                 1.0856
 Frc consts  --      6.2743                 6.2839                 6.2413
 IR Inten    --     41.4904                40.2202                 3.1457

                     91                     92                     93
                      A                      A                      A
 Frequencies --   3164.1699              3167.6667              3170.4978
 Red. masses --      1.1025                 1.0988                 1.1009
 Frc consts  --      6.5037                 6.4959                 6.5203
 IR Inten    --     24.9870                22.5749                19.3297

                     94                     95                     96
                      A                      A                      A
 Frequencies --   3173.3948              3176.1264              3189.5034
 Red. masses --      1.0878                 1.1021                 1.0942
 Frc consts  --      6.4544                 6.5504                 6.5580
 IR Inten    --      0.2535                17.0637                 1.8633

 - Thermochemistry -
 -------------------
 Temperature   298.150 Kelvin.  Pressure   1.00000 Atm.
 Atom     1 has atomic number  6 and mass  12.00000

 Molecular mass:   219.12325 amu.
 Principal axes and moments of inertia in atomic units:
                           1         2         3
     Eigenvalues --  2763.174253590.129554141.06127
           X            0.99939  -0.03319   0.01075
           Y            0.03371   0.99806  -0.05240
           Z           -0.00899   0.05273   0.99857
 This molecule is an asymmetric top.
 Rotational symmetry number  1.
 Warning -- assumption of classical behavior for rotation
           may cause significant error
 Rotational temperatures (Kelvin)      0.03135     0.02413     0.02092
 Rotational constants (GHZ):           0.65314     0.50270     0.43582
 Zero-point vibrational energy     776465.9 (Joules/Mol)
                                  185.57981 (Kcal/Mol)
 Warning -- explicit consideration of  26 degrees of freedom as
           vibrations may cause significant error
 Vibrational temperatures:     60.09    80.13   118.98   136.39   151.01
          (Kelvin)            184.83   233.02   247.05   274.12   284.08
                              322.48   330.88   356.71   373.28   397.59
                              448.44   463.38   476.93   496.38   532.10
                              595.31   620.74   715.66   743.90   835.54
                              881.06   959.69  1061.94  1098.75  1220.59
                             1282.56  1336.50  1361.50  1402.55  1435.85
                             1499.57  1504.85  1540.14  1564.61  1613.39
                             1639.20  1653.92  1672.14  1683.46  1699.88
                             1707.83  1713.18  1726.36  1766.11  1773.10
                             1776.82  1785.26  1798.70  1845.94  1868.43
                             1898.65  1910.54  1951.40  1967.15  2021.34
                             2031.62  2050.49  2072.17  2150.28  2161.05
                             2170.34  2172.99  2178.78  2181.26  2192.45
                             2193.36  2205.83  2210.88  2215.80  2221.98
                             2228.11  2365.36  4326.36  4343.21  4359.62
                             4364.14  4365.49  4373.54  4397.88  4400.80
                             4440.65  4450.75  4474.25  4482.72  4494.37
                             4552.53  4557.57  4561.64  4565.81  4569.74
                             4588.98

 Zero-point correction=                           0.295740 (Hartree/Particle)
 Thermal correction to Energy=                    0.312334
 Thermal correction to Enthalpy=                  0.313278
 Thermal correction to Gibbs Free Energy=         0.252115
 Sum of electronic and zero-point Energies=           -768.027778
 Sum of electronic and thermal Energies=              -768.011184
 Sum of electronic and thermal Enthalpies=            -768.010240
 Sum of electronic and thermal Free Energies=         -768.071403

                     E (Thermal)             CV                S
                      KCal/Mol        Cal/Mol-Kelvin    Cal/Mol-Kelvin
 Total                  195.993             60.920            128.728
 Electronic               0.000              0.000              0.000
 Translational            0.889              2.981             42.056
 Rotational               0.889              2.981             32.085
 Vibrational            194.215             54.958             54.587
 Vibration     1          0.594              1.980              5.174
 Vibration     2          0.596              1.975              4.604
 Vibration     3          0.600              1.961              3.826
 Vibration     4          0.603              1.953              3.559
 Vibration     5          0.605              1.945              3.360
 Vibration     6          0.611              1.925              2.969
 Vibration     7          0.622              1.889              2.527
 Vibration     8          0.626              1.877              2.417
 Vibration     9          0.634              1.853              2.223
 Vibration    10          0.637              1.843              2.157
 Vibration    11          0.649              1.804              1.925
 Vibration    12          0.652              1.795              1.879
 Vibration    13          0.662              1.766              1.745
 Vibration    14          0.668              1.747              1.666
 Vibration    15          0.678              1.717              1.556
 Vibration    16          0.700              1.651              1.353
 Vibration    17          0.707              1.631              1.300
 Vibration    18          0.714              1.613              1.253
 Vibration    19          0.723              1.585              1.189
 Vibration    20          0.742              1.534              1.080
 Vibration    21          0.777              1.440              0.913
 Vibration    22          0.792              1.402              0.854
 Vibration    23          0.853              1.256              0.665
 Vibration    24          0.872              1.212              0.617
 Vibration    25          0.937              1.073              0.484
 Vibration    26          0.972              1.006              0.429

                           ! Non-Optimized Parameters !
 Normal termination of Gaussian 16 at Fri May 24 08:53:35 2019.
