 Gaussian 16, Revision A.03,
 Gaussian 16:  ES64L-G16RevA.03 25-Dec-2016

 -------------------------------------------------------------------
 #p b3lyp 6-31g* opt freq=noraman scrf=(pcm,solvent=tetrahydrofuran)
 -------------------------------------------------------------------

 -----
 title
 -----
 Symbolic Z-matrix:
 Charge =  1 Multiplicity = 1

 SCF Done:  E(RB3LYP) =  -768.328650372     A.U. after   15 cycles
 Optimization completed.
    -- Stationary point found.
 Normal termination of Gaussian 16 at Fri May 24 08:49:13 2019.

 --------------------------------------------------------------------
 #P Geom=AllCheck Guess=TCheck SCRF=Check GenChk RB3LYP/6-31G(d) Freq
 --------------------------------------------------------------------

 Structure from the checkpoint file:  "/scratch/Gau-62519.chk"
 -----
 title
 -----
 Charge =  1 Multiplicity = 1

                         Standard orientation:
 ---------------------------------------------------------------------
 Center     Atomic      Atomic             Coordinates (Angstroms)
 Number     Number       Type             X           Y           Z
 ---------------------------------------------------------------------
      1          6           0       -1.122657    0.413268   -0.282138
      2          6           0       -1.699139   -0.934442    0.205062
      3          6           0       -0.911812   -2.064375   -0.358195
      4          6           0        1.137560   -0.748827   -0.634654
      5          6           0        0.393163    0.455521   -0.021560
      6          1           0       -1.385577   -3.032924   -0.526083
      7          1           0       -1.554173   -0.988778    1.300829
      8          1           0       -1.308141    0.498791   -1.360370
      9          1           0        1.356535   -0.550515   -1.684911
     10          1           0        0.554721    0.470776    1.063626
     11          8           0        0.290529   -1.999149   -0.715359
     12          8           0       -3.035719   -1.126534   -0.160635
     13          8           0       -1.762646    1.442380    0.428654
     14          8           0        0.920466    1.615877   -0.628439
     15          6           0        2.392112   -1.220337    0.104388
     16          1           0        2.775362   -2.131371   -0.379178
     17          1           0        2.137652   -1.467685    1.148244
     18          8           0        3.318677   -0.166072    0.033689
     19          6           0       -3.981782   -0.988219    0.911917
     20          1           0       -4.966615   -1.102665    0.457699
     21          1           0       -3.895481    0.000608    1.372558
     22          1           0       -3.834791   -1.768631    1.667923
     23          6           0       -2.297682    2.494164   -0.383158
     24          1           0       -2.749358    3.209081    0.306939
     25          1           0       -1.507867    2.986836   -0.959327
     26          1           0       -3.067186    2.109727   -1.063810
     27          6           0        1.531810    2.548712    0.269475
     28          1           0        2.393106    2.096337    0.770869
     29          1           0        1.866640    3.383713   -0.349055
     30          1           0        0.809639    2.911380    1.009862
     31          6           0        4.545276   -0.476583    0.688755
     32          1           0        5.191256    0.395077    0.571265
     33          1           0        4.386479   -0.672605    1.758256
     34          1           0        5.026243   -1.352454    0.232030
 ---------------------------------------------------------------------

 SCF Done:  E(RB3LYP) =  -768.328650372     A.U. after    1 cycles

 The electronic state is 1-A.
 Alpha  occ. eigenvalues --  -19.33208 -19.20622 -19.19063 -19.18745 -19.18698
 Alpha  occ. eigenvalues --  -10.39783 -10.32026 -10.31675 -10.29198 -10.29172
 Alpha  occ. eigenvalues --  -10.27947 -10.25646 -10.24801 -10.24774 -10.24383
 Alpha  occ. eigenvalues --   -1.21761  -1.09531  -1.07826  -1.06974  -1.05891
 Alpha  occ. eigenvalues --   -0.87235  -0.85980  -0.77354  -0.74620  -0.73328
 Alpha  occ. eigenvalues --   -0.70790  -0.68244  -0.67246  -0.65866  -0.63071
 Alpha  occ. eigenvalues --   -0.60236  -0.58820  -0.55511  -0.54810  -0.53458
 Alpha  occ. eigenvalues --   -0.51879  -0.51328  -0.50697  -0.50444  -0.49014
 Alpha  occ. eigenvalues --   -0.48608  -0.47463  -0.46236  -0.45728  -0.45216
 Alpha  occ. eigenvalues --   -0.44464  -0.42276  -0.41992  -0.40899  -0.40222
 Alpha  occ. eigenvalues --   -0.39559  -0.37001  -0.35731  -0.35559  -0.35199
 Alpha  occ. eigenvalues --   -0.31860  -0.30712  -0.29129  -0.27561
 Alpha virt. eigenvalues --   -0.15329  -0.00890   0.04584   0.05729   0.07066
 Alpha virt. eigenvalues --    0.07742   0.07842   0.09428   0.09980   0.11115
 Alpha virt. eigenvalues --    0.11543   0.11842   0.12304   0.12679   0.13630

 Mulliken charges:
               1
     1  C    0.126629
     2  C    0.036434
     3  C    0.303180
     4  C    0.064014
     5  C    0.101866
     6  H    0.280311
     7  H    0.239381
     8  H    0.183428
     9  H    0.244737
    10  H    0.179118
    11  O   -0.316968
    12  O   -0.479960
    13  O   -0.489674
    14  O   -0.485681
    15  C   -0.024221
    16  H    0.174370
    17  H    0.162040
    18  O   -0.470397
    19  C   -0.231396
    20  H    0.190721
    21  H    0.181666
    22  H    0.169769
    23  C   -0.224611
    24  H    0.180134
    25  H    0.171026
    26  H    0.165562
    27  C   -0.224392
    28  H    0.169518
    29  H    0.177357
    30  H    0.161763
    31  C   -0.212212
    32  H    0.181413
    33  H    0.156335
    34  H    0.158742
 Sum of Mulliken charges =   1.00000

 Dipole moment (field-independent basis, Debye):
    X=             -1.2342    Y=             -5.1533    Z=              1.4569  Tot=              5.4956
 Quadrupole moment (field-independent basis, Debye-Ang):
   XX=            -57.5331   YY=            -65.8469   ZZ=            -83.6130
   XY=              0.3948   XZ=              1.3135   YZ=             -0.5776

  Exact polarizability: 173.172   1.638 152.328  -4.558   2.196 113.661
 Approx polarizability: 177.160   0.277 169.278  -7.103   3.318 144.246

                      1                      2                      3
                      A                      A                      A
 Frequencies --      9.9242                43.0642                53.4417
 Red. masses --      3.9566                 2.7131                 3.4730
 Frc consts  --      0.0002                 0.0030                 0.0058
 IR Inten    --      0.6124                 8.3859                 0.9208

                      4                      5                      6
                      A                      A                      A
 Frequencies --     68.2960                78.5061                87.3811
 Red. masses --      3.1740                 2.9925                 2.5135
 Frc consts  --      0.0087                 0.0109                 0.0113
 IR Inten    --      2.8289                 6.0839                 3.0392

                      7                      8                      9
                      A                      A                      A
 Frequencies --    111.6668               130.7769               143.0450
 Red. masses --      2.4775                 2.8426                 1.1456
 Frc consts  --      0.0182                 0.0286                 0.0138
 IR Inten    --     10.0429                 0.6725                 0.0817

                     10                     11                     12
                      A                      A                      A
 Frequencies --    151.2879               180.9054               186.9580
 Red. masses --      1.1903                 1.2234                 2.5687
 Frc consts  --      0.0161                 0.0236                 0.0529
 IR Inten    --      1.9817                 0.8181                 0.8162

                     13                     14                     15
                      A                      A                      A
 Frequencies --    212.7210               231.7530               259.5198
 Red. masses --      2.2791                 1.5756                 4.5351
 Frc consts  --      0.0608                 0.0499                 0.1800
 IR Inten    --      1.4409                 8.6611                 3.2737

                     16                     17                     18
                      A                      A                      A
 Frequencies --    268.3340               291.4463               296.1469
 Red. masses --      4.1741                 4.8648                 3.4227
 Frc consts  --      0.1771                 0.2435                 0.1769
 IR Inten    --     26.0650                 1.7609                 9.1712

                     19                     20                     21
                      A                      A                      A
 Frequencies --    341.6287               371.1402               394.3188
 Red. masses --      5.3323                 3.8611                 3.6437
 Frc consts  --      0.3667                 0.3134                 0.3338
 IR Inten    --      1.1704                 1.0770                 8.4666

                     22                     23                     24
                      A                      A                      A
 Frequencies --    434.9574               471.5315               499.8163
 Red. masses --      5.0785                 4.3179                 3.7779
 Frc consts  --      0.5661                 0.5656                 0.5561
 IR Inten    --      1.9631                 5.6813                22.7745

                     25                     26                     27
                      A                      A                      A
 Frequencies --    504.1268               544.4850               583.3241
 Red. masses --      3.6058                 3.0859                 2.9748
 Frc consts  --      0.5399                 0.5390                 0.5964
 IR Inten    --     28.9302                 7.8001                 9.1323

                     28                     29                     30
                      A                      A                      A
 Frequencies --    712.3163               794.5347               857.0981
 Red. masses --      3.8772                 6.7933                 1.8981
 Frc consts  --      1.1591                 2.5267                 0.8215
 IR Inten    --     60.3725                82.3678                25.2283

                     31                     32                     33
                      A                      A                      A
 Frequencies --    935.4547               954.2339               988.7339
 Red. masses --      2.0110                 4.6637                 4.3463
 Frc consts  --      1.0368                 2.5020                 2.5034
 IR Inten    --      4.2555                 3.5133                41.9312

                     34                     35                     36
                      A                      A                      A
 Frequencies --    997.4183              1027.1807              1066.0464
 Red. masses --      4.0203                 5.1761                 2.4494
 Frc consts  --      2.3565                 3.2177                 1.6401
 IR Inten    --     18.4788                85.9182                74.8706

                     37                     38                     39
                      A                      A                      A
 Frequencies --   1076.3370              1101.1463              1123.1701
 Red. masses --      4.1293                 2.9251                 2.7521
 Frc consts  --      2.8185                 2.0897                 2.0456
 IR Inten    --     35.0093                36.5038               118.1856

                     40                     41                     42
                      A                      A                      A
 Frequencies --   1136.5350              1145.9321              1153.7145
 Red. masses --      2.7765                 3.5066                 3.0107
 Frc consts  --      2.1131                 2.7131                 2.3611
 IR Inten    --     43.7780                31.7497               167.8650

                     43                     44                     45
                      A                      A                      A
 Frequencies --   1163.4414              1178.5164              1180.4360
 Red. masses --      3.9437                 1.4543                 1.2950
 Frc consts  --      3.1452                 1.1901                 1.0632
 IR Inten    --    322.0878                48.4151                11.0657

                     46                     47                     48
                      A                      A                      A
 Frequencies --   1180.6923              1183.3453              1189.3007
 Red. masses --      1.4343                 1.8588                 1.3777
 Frc consts  --      1.1781                 1.5335                 1.1481
 IR Inten    --     45.8167               103.6302                39.0379

                     49                     50                     51
                      A                      A                      A
 Frequencies --   1213.7064              1225.6277              1230.2887
 Red. masses --      1.4172                 1.6917                 1.5509
 Frc consts  --      1.2300                 1.4972                 1.3831
 IR Inten    --     55.2926                 3.3655                16.6832

                     52                     53                     54
                      A                      A                      A
 Frequencies --   1235.7258              1240.3145              1270.2567
 Red. masses --      1.7159                 1.4161                 1.4091
 Frc consts  --      1.5438                 1.2835                 1.3396
 IR Inten    --     35.8361                13.1775                32.8310

                     55                     56                     57
                      A                      A                      A
 Frequencies --   1293.7588              1305.5006              1333.8862
 Red. masses --      1.2978                 1.1918                 1.2613
 Frc consts  --      1.2799                 1.1968                 1.3223
 IR Inten    --     33.1474                19.9044                 5.6707

                     58                     59                     60
                      A                      A                      A
 Frequencies --   1345.1616              1373.7854              1406.0033
 Red. masses --      1.2732                 1.3823                 1.3510
 Frc consts  --      1.3573                 1.5371                 1.5735
 IR Inten    --      9.9091                 1.5963                21.9301

                     61                     62                     63
                      A                      A                      A
 Frequencies --   1408.4903              1436.8776              1446.4350
 Red. masses --      1.4424                 1.2056                 1.3619
 Frc consts  --      1.6860                 1.4665                 1.6788
 IR Inten    --     25.5263                47.6192                35.5629

                     64                     65                     66
                      A                      A                      A
 Frequencies --   1492.7262              1493.9842              1499.6538
 Red. masses --      1.1572                 1.1511                 1.1644
 Frc consts  --      1.5193                 1.5138                 1.5429
 IR Inten    --      3.5111                 0.1960                 0.6996

                     67                     68                     69
                      A                      A                      A
 Frequencies --   1500.0608              1508.4345              1508.9039
 Red. masses --      1.1549                 1.0472                 1.0511
 Frc consts  --      1.5311                 1.4039                 1.4100
 IR Inten    --      0.6127                 9.1124                10.6413

                     70                     71                     72
                      A                      A                      A
 Frequencies --   1509.5410              1513.8896              1526.8046
 Red. masses --      1.0518                 1.0506                 1.0629
 Frc consts  --      1.4121                 1.4186                 1.4599
 IR Inten    --      2.3869                 3.2620                19.0120

                     73                     74                     75
                      A                      A                      A
 Frequencies --   1527.0403              1528.0417              1530.6703
 Red. masses --      1.0534                 1.0521                 1.0508
 Frc consts  --      1.4472                 1.4474                 1.4505
 IR Inten    --      7.8693                12.0460                 4.9004

                     76                     77                     78
                      A                      A                      A
 Frequencies --   1557.3487              1643.4703              2965.9779
 Red. masses --      1.0868                 7.1521                 1.0785
 Frc consts  --      1.5530                11.3817                 5.5898
 IR Inten    --      1.8931               315.5353                20.8186

                     79                     80                     81
                      A                      A                      A
 Frequencies --   2993.4879              3022.2701              3043.5091
 Red. masses --      1.0600                 1.0356                 1.1006
 Frc consts  --      5.5963                 5.5733                 6.0068
 IR Inten    --     38.2943                68.4683                71.0042

                     82                     83                     84
                      A                      A                      A
 Frequencies --   3045.5694              3049.6402              3050.5504
 Red. masses --      1.0338                 1.0383                 1.0349
 Frc consts  --      5.6496                 5.6896                 5.6740
 IR Inten    --     55.6345                46.1042                44.1777

                     85                     86                     87
                      A                      A                      A
 Frequencies --   3059.9036              3074.8671              3078.3084
 Red. masses --      1.0780                 1.0846                 1.1068
 Frc consts  --      5.9469                 6.0419                 6.1792
 IR Inten    --     12.8423                25.4504                52.9225

                     88                     89                     90
                      A                      A                      A
 Frequencies --   3118.2797              3126.2520              3126.7672
 Red. masses --      1.1050                 1.1056                 1.1046
 Frc consts  --      6.3303                 6.3666                 6.3630
 IR Inten    --     42.0350                33.1339                27.0795

                     91                     92                     93
                      A                      A                      A
 Frequencies --   3154.8434              3162.8822              3163.3368
 Red. masses --      1.0872                 1.1001                 1.1043
 Frc consts  --      6.3758                 6.4843                 6.5105
 IR Inten    --      1.0468                16.2007                31.6863

                     94                     95                     96
                      A                      A                      A
 Frequencies --   3165.9595              3179.2320              3200.7971
 Red. masses --      1.1038                 1.1041                 1.0947
 Frc consts  --      6.5185                 6.5751                 6.6076
 IR Inten    --     23.8059                18.4847                 1.5969

 - Thermochemistry -
 -------------------
 Temperature   298.150 Kelvin.  Pressure   1.00000 Atm.
 Atom     1 has atomic number  6 and mass  12.00000

 Molecular mass:   219.12325 amu.
 Principal axes and moments of inertia in atomic units:
                           1         2         3
     Eigenvalues --  1985.477844664.573916181.58358
           X            0.99996  -0.00780   0.00339
           Y            0.00784   0.99990  -0.01211
           Z           -0.00330   0.01214   0.99992
 This molecule is an asymmetric top.
 Rotational symmetry number  1.
 Warning -- assumption of classical behavior for rotation
           may cause significant error
 Rotational temperatures (Kelvin)      0.04362     0.01857     0.01401
 Rotational constants (GHZ):           0.90897     0.38690     0.29195
 Zero-point vibrational energy     771501.1 (Joules/Mol)
                                  184.39319 (Kcal/Mol)
 Warning -- explicit consideration of  27 degrees of freedom as
           vibrations may cause significant error
 Vibrational temperatures:     14.28    61.96    76.89    98.26   112.95
          (Kelvin)            125.72   160.66   188.16   205.81   217.67
                              260.28   268.99   306.06   333.44   373.39
                              386.07   419.33   426.09   491.53   533.99
                              567.34   625.81   678.43   719.12   725.33
                              783.39   839.27  1024.86  1143.16  1233.17
                             1345.91  1372.93  1422.57  1435.06  1477.88
                             1533.80  1548.61  1584.30  1615.99  1635.22
                             1648.74  1659.94  1673.93  1695.62  1698.38
                             1698.75  1702.57  1711.14  1746.25  1763.40
                             1770.11  1777.93  1784.54  1827.62  1861.43
                             1878.32  1919.16  1935.39  1976.57  2022.93
                             2026.50  2067.35  2081.10  2147.70  2149.51
                             2157.67  2158.25  2170.30  2170.98  2171.89
                             2178.15  2196.73  2197.07  2198.51  2202.29
                             2240.68  2364.59  4267.38  4306.96  4348.37
                             4378.93  4381.90  4387.75  4389.06  4402.52
                             4424.05  4429.00  4486.51  4497.98  4498.72
                             4539.12  4550.68  4551.34  4555.11  4574.21
                             4605.23

 Zero-point correction=                           0.293849 (Hartree/Particle)
 Thermal correction to Energy=                    0.311625
 Thermal correction to Enthalpy=                  0.312569
 Thermal correction to Gibbs Free Energy=         0.246065
 Sum of electronic and zero-point Energies=           -768.034801
 Sum of electronic and thermal Energies=              -768.017025
 Sum of electronic and thermal Enthalpies=            -768.016081
 Sum of electronic and thermal Free Energies=         -768.082586

                     E (Thermal)             CV                S
                      KCal/Mol        Cal/Mol-Kelvin    Cal/Mol-Kelvin
 Total                  195.548             62.033            139.971
 Electronic               0.000              0.000              0.000
 Translational            0.889              2.981             42.056
 Rotational               0.889              2.981             32.415
 Vibrational            193.770             56.071             65.499
 Vibration     1          0.593              1.987              8.026
 Vibration     2          0.595              1.980              5.113
 Vibration     3          0.596              1.976              4.686
 Vibration     4          0.598              1.969              4.202
 Vibration     5          0.600              1.964              3.928
 Vibration     6          0.601              1.958              3.718
 Vibration     7          0.607              1.940              3.240
 Vibration     8          0.612              1.923              2.935
 Vibration     9          0.616              1.910              2.763
 Vibration    10          0.619              1.901              2.656
 Vibration    11          0.630              1.866              2.319
 Vibration    12          0.632              1.858              2.258
 Vibration    13          0.644              1.822              2.020
 Vibration    14          0.653              1.792              1.865
 Vibration    15          0.668              1.747              1.665
 Vibration    16          0.673              1.731              1.607
 Vibration    17          0.687              1.690              1.466
 Vibration    18          0.690              1.681              1.439
 Vibration    19          0.721              1.592              1.205
 Vibration    20          0.743              1.531              1.075
 Vibration    21          0.761              1.482              0.984
 Vibration    22          0.796              1.394              0.843
 Vibration    23          0.828              1.313              0.733
 Vibration    24          0.855              1.250              0.659
 Vibration    25          0.859              1.241              0.648
 Vibration    26          0.900              1.152              0.556
 Vibration    27          0.940              1.067              0.479

                           ! Non-Optimized Parameters !
 Normal termination of Gaussian 16 at Fri May 24 09:33:50 2019.
