 Gaussian 16, Revision A.03,
 Gaussian 16:  ES64L-G16RevA.03 25-Dec-2016

 -------------------------------------------------------------------
 #p b3lyp 6-31g* opt freq=noraman scrf=(pcm,solvent=tetrahydrofuran)
 -------------------------------------------------------------------

 -----
 title
 -----
 Symbolic Z-matrix:
 Charge =  1 Multiplicity = 1

 SCF Done:  E(RB3LYP) =  -768.323407924     A.U. after   14 cycles
 SCF Done:  E(RB3LYP) =  -768.323407683     A.U. after    6 cycles
 Optimization completed.
    -- Stationary point found.
 Normal termination of Gaussian 16 at Fri May 24 08:34:40 2019.

 --------------------------------------------------------------------
 #P Geom=AllCheck Guess=TCheck SCRF=Check GenChk RB3LYP/6-31G(d) Freq
 --------------------------------------------------------------------

 Structure from the checkpoint file:  "/scratch/Gau-12625.chk"
 -----
 title
 -----
 Charge =  1 Multiplicity = 1

                         Standard orientation:
 ---------------------------------------------------------------------
 Center     Atomic      Atomic             Coordinates (Angstroms)
 Number     Number       Type             X           Y           Z
 ---------------------------------------------------------------------
      1          6           0       -1.296600    0.425154   -0.309830
      2          6           0       -1.008808   -1.116571   -0.198307
      3          6           0        0.042904   -1.408951   -1.205195
      4          6           0        1.301313    0.541077   -0.534016
      5          6           0        0.004035    1.251336   -0.092888
      6          1           0       -0.055420   -2.239891   -1.905820
      7          1           0       -0.608958   -1.333936    0.808267
      8          1           0       -1.631803    0.617897   -1.333787
      9          1           0        1.842581    1.177107   -1.231459
     10          1           0        0.098871    1.467066    0.981917
     11          8           0        1.044124   -0.674067   -1.397483
     12          8           0       -2.170676   -1.834423   -0.475157
     13          8           0       -2.362115    0.833371    0.499058
     14          8           0       -0.030437    2.457139   -0.826104
     15          6           0        2.211620    0.102189    0.602247
     16          1           0        1.686549   -0.578824    1.293423
     17          1           0        2.458868    1.013578    1.171190
     18          8           0        3.349788   -0.499600    0.048088
     19          6           0       -2.239166   -3.130222    0.137746
     20          1           0       -2.140034   -3.050991    1.227494
     21          1           0       -3.221144   -3.530585   -0.114273
     22          1           0       -1.462715   -3.801974   -0.249222
     23          6           0       -2.333436    0.481038    1.882361
     24          1           0       -1.404076    0.784624    2.379101
     25          1           0       -3.168077    1.014454    2.339030
     26          1           0       -2.485973   -0.596593    2.019462
     27          6           0       -0.835719    3.494304   -0.257582
     28          1           0       -1.902037    3.251382   -0.295738
     29          1           0       -0.545833    3.685093    0.784698
     30          1           0       -0.640074    4.385587   -0.856299
     31          6           0        4.298931   -0.892940    1.034834
     32          1           0        4.659937   -0.027065    1.606929
     33          1           0        3.868719   -1.626733    1.730862
     34          1           0        5.134689   -1.348034    0.500783
 ---------------------------------------------------------------------

 SCF Done:  E(RB3LYP) =  -768.323407683     A.U. after    1 cycles

 The electronic state is 1-A.
 Alpha  occ. eigenvalues --  -19.32822 -19.21205 -19.20154 -19.19040 -19.18754
 Alpha  occ. eigenvalues --  -10.39516 -10.32381 -10.32195 -10.30454 -10.30133
 Alpha  occ. eigenvalues --  -10.28675 -10.26387 -10.25905 -10.24925 -10.24765
 Alpha  occ. eigenvalues --   -1.21646  -1.10352  -1.08393  -1.07266  -1.06819
 Alpha  occ. eigenvalues --   -0.87273  -0.86051  -0.77658  -0.75356  -0.74544
 Alpha  occ. eigenvalues --   -0.71597  -0.69298  -0.68561  -0.65598  -0.62641
 Alpha  occ. eigenvalues --   -0.60278  -0.59226  -0.56386  -0.54200  -0.54087
 Alpha  occ. eigenvalues --   -0.52884  -0.52623  -0.51376  -0.50865  -0.48794
 Alpha  occ. eigenvalues --   -0.48529  -0.48244  -0.47082  -0.45841  -0.45683
 Alpha  occ. eigenvalues --   -0.44803  -0.43130  -0.42262  -0.41898  -0.40715
 Alpha  occ. eigenvalues --   -0.40423  -0.38003  -0.35936  -0.35701  -0.35100
 Alpha  occ. eigenvalues --   -0.32394  -0.31975  -0.29400  -0.28180
 Alpha virt. eigenvalues --   -0.15241   0.00378   0.03493   0.04128   0.05509
 Alpha virt. eigenvalues --    0.06444   0.06959   0.07939   0.09431   0.10188
 Alpha virt. eigenvalues --    0.10556   0.10990   0.12020   0.12265   0.12619

 Mulliken charges:
               1
     1  C    0.123086
     2  C    0.006203
     3  C    0.287970
     4  C    0.035235
     5  C    0.106652
     6  H    0.281289
     7  H    0.224988
     8  H    0.205530
     9  H    0.251344
    10  H    0.182956
    11  O   -0.295346
    12  O   -0.466902
    13  O   -0.461141
    14  O   -0.491628
    15  C   -0.035757
    16  H    0.162322
    17  H    0.188596
    18  O   -0.474714
    19  C   -0.235908
    20  H    0.174855
    21  H    0.201111
    22  H    0.170389
    23  C   -0.245359
    24  H    0.165133
    25  H    0.197989
    26  H    0.170299
    27  C   -0.224003
    28  H    0.173439
    29  H    0.156971
    30  H    0.181442
    31  C   -0.214494
    32  H    0.160017
    33  H    0.155005
    34  H    0.182429
 Sum of Mulliken charges =   1.00000

 Dipole moment (field-independent basis, Debye):
    X=              0.9270    Y=             -3.8455    Z=              2.4394  Tot=              4.6474
 Quadrupole moment (field-independent basis, Debye-Ang):
   XX=            -76.6806   YY=            -64.1881   ZZ=            -77.4093
   XY=              2.8087   XZ=              1.5636   YZ=              3.9990

  Exact polarizability: 157.758   1.898 155.271  -8.567   5.956 126.777
 Approx polarizability: 177.135  -0.174 168.340 -12.865   6.517 156.005

                      1                      2                      3
                      A                      A                      A
 Frequencies --     25.8926                60.8372                84.2880
 Red. masses --      4.0585                 3.9485                 2.6193
 Frc consts  --      0.0016                 0.0086                 0.0110
 IR Inten    --      1.0677                 0.6270                 2.3215

                      4                      5                      6
                      A                      A                      A
 Frequencies --     92.1096               101.4052               113.2551
 Red. masses --      2.5209                 2.6777                 2.2013
 Frc consts  --      0.0126                 0.0162                 0.0166
 IR Inten    --      2.9259                 4.8740                 4.2060

                      7                      8                      9
                      A                      A                      A
 Frequencies --    120.9488               156.3870               175.6283
 Red. masses --      2.3130                 2.6868                 1.5158
 Frc consts  --      0.0199                 0.0387                 0.0275
 IR Inten    --      6.8797                 2.7029                 1.4145

                     10                     11                     12
                      A                      A                      A
 Frequencies --    194.9791               202.2605               209.8246
 Red. masses --      1.2898                 1.6624                 1.9026
 Frc consts  --      0.0289                 0.0401                 0.0494
 IR Inten    --      1.7015                 1.1594                 4.8550

                     13                     14                     15
                      A                      A                      A
 Frequencies --    222.2249               245.8104               257.2954
 Red. masses --      1.8174                 2.0762                 3.5476
 Frc consts  --      0.0529                 0.0739                 0.1384
 IR Inten    --      1.4582                 6.4962                 4.1629

                     16                     17                     18
                      A                      A                      A
 Frequencies --    270.3654               301.7150               310.6710
 Red. masses --      2.3486                 4.5537                 4.1478
 Frc consts  --      0.1012                 0.2442                 0.2359
 IR Inten    --     14.4248                 6.0169                 9.0255

                     19                     20                     21
                      A                      A                      A
 Frequencies --    358.8012               362.4588               388.8604
 Red. masses --      4.4873                 4.3165                 3.9628
 Frc consts  --      0.3404                 0.3341                 0.3531
 IR Inten    --      9.8940                 3.1871                 1.6354

                     22                     23                     24
                      A                      A                      A
 Frequencies --    421.0257               463.5368               527.3391
 Red. masses --      4.6532                 3.7264                 3.6137
 Frc consts  --      0.4860                 0.4717                 0.5921
 IR Inten    --     11.8578                24.3089                19.7666

                     25                     26                     27
                      A                      A                      A
 Frequencies --    542.9026               609.3091               623.2467
 Red. masses --      3.1126                 3.3329                 3.9849
 Frc consts  --      0.5405                 0.7290                 0.9120
 IR Inten    --     20.9029                19.1476                22.9334

                     28                     29                     30
                      A                      A                      A
 Frequencies --    719.4853               748.7876               840.3804
 Red. masses --      3.9472                 4.5496                 2.2514
 Frc consts  --      1.2039                 1.5029                 0.9368
 IR Inten    --     58.0507                40.7921                42.8294

                     31                     32                     33
                      A                      A                      A
 Frequencies --    945.3820               950.3981               968.6546
 Red. masses --      4.6765                 3.5902                 2.7591
 Frc consts  --      2.4626                 1.9106                 1.5253
 IR Inten    --     11.4594                65.4424                34.6086

                     34                     35                     36
                      A                      A                      A
 Frequencies --    989.4584              1018.0679              1043.7113
 Red. masses --      4.4965                 4.5993                 2.9017
 Frc consts  --      2.5937                 2.8087                 1.8624
 IR Inten    --     42.3016                14.6053               132.5263

                     37                     38                     39
                      A                      A                      A
 Frequencies --   1057.3393              1086.7320              1108.1728
 Red. masses --      3.4877                 3.0327                 3.0486
 Frc consts  --      2.2973                 2.1102                 2.2058
 IR Inten    --     34.2633                26.6980                 6.7185

                     40                     41                     42
                      A                      A                      A
 Frequencies --   1125.7440              1137.2535              1163.5125
 Red. masses --      2.4620                 5.8596                 3.1830
 Frc consts  --      1.8383                 4.4651                 2.5388
 IR Inten    --     34.7170               343.1495               236.5885

                     43                     44                     45
                      A                      A                      A
 Frequencies --   1164.8169              1172.9815              1188.5619
 Red. masses --      3.4554                 2.8944                 1.3120
 Frc consts  --      2.7623                 2.3464                 1.0920
 IR Inten    --    105.1401                48.4158                 7.1947

                     46                     47                     48
                      A                      A                      A
 Frequencies --   1189.5119              1191.0119              1191.8814
 Red. masses --      1.2974                 1.4016                 1.2736
 Frc consts  --      1.0816                 1.1714                 1.0660
 IR Inten    --      3.5220                 0.9273                11.5128

                     49                     50                     51
                      A                      A                      A
 Frequencies --   1214.9106              1224.7068              1234.7080
 Red. masses --      1.4848                 1.5226                 1.6386
 Frc consts  --      1.2912                 1.3456                 1.4718
 IR Inten    --     69.9452                67.0846                24.2622

                     52                     53                     54
                      A                      A                      A
 Frequencies --   1238.7546              1248.7609              1281.0316
 Red. masses --      1.8320                 1.5694                 1.2700
 Frc consts  --      1.6563                 1.4419                 1.2279
 IR Inten    --     12.4880                31.9860                23.4894

                     55                     56                     57
                      A                      A                      A
 Frequencies --   1298.6723              1314.5903              1336.6597
 Red. masses --      1.1741                 1.2611                 1.1993
 Frc consts  --      1.1666                 1.2841                 1.2624
 IR Inten    --     15.3710                 3.4216                31.3465

                     58                     59                     60
                      A                      A                      A
 Frequencies --   1356.6288              1383.7539              1411.8492
 Red. masses --      1.2136                 1.3033                 1.3044
 Frc consts  --      1.3159                 1.4704                 1.5319
 IR Inten    --      6.9841                27.6918                27.0068

                     61                     62                     63
                      A                      A                      A
 Frequencies --   1420.3648              1442.7145              1452.3320
 Red. masses --      1.3598                 1.2029                 1.3216
 Frc consts  --      1.6163                 1.4752                 1.6424
 IR Inten    --     33.2923                10.7909                59.9131

                     64                     65                     66
                      A                      A                      A
 Frequencies --   1498.3098              1499.5754              1502.0171
 Red. masses --      1.1172                 1.1035                 1.1602
 Frc consts  --      1.4777                 1.4621                 1.5422
 IR Inten    --      2.5360                 4.5468                 0.6216

                     67                     68                     69
                      A                      A                      A
 Frequencies --   1504.6696              1510.7286              1512.0952
 Red. masses --      1.1107                 1.0468                 1.0769
 Frc consts  --      1.4816                 1.4076                 1.4507
 IR Inten    --      1.0000                10.4500                 6.4677

                     70                     71                     72
                      A                      A                      A
 Frequencies --   1519.8154              1521.2390              1524.0752
 Red. masses --      1.0486                 1.0832                 1.0598
 Frc consts  --      1.4270                 1.4769                 1.4503
 IR Inten    --     11.8076                 9.0466                11.9680

                     73                     74                     75
                      A                      A                      A
 Frequencies --   1529.0037              1531.6802              1534.5782
 Red. masses --      1.0600                 1.0605                 1.0666
 Frc consts  --      1.4600                 1.4659                 1.4799
 IR Inten    --      5.4419                14.4432                31.6344

                     76                     77                     78
                      A                      A                      A
 Frequencies --   1548.8303              1644.2557              2985.0121
 Red. masses --      1.0959                 5.9030                 1.0606
 Frc consts  --      1.5489                 9.4029                 5.5678
 IR Inten    --      4.9267               234.0783                54.5803

                     79                     80                     81
                      A                      A                      A
 Frequencies --   2993.8182              3020.4047              3022.7506
 Red. masses --      1.0774                 1.0378                 1.0828
 Frc consts  --      5.6893                 5.5780                 5.8293
 IR Inten    --     18.5975                66.2212                15.9495

                     82                     83                     84
                      A                      A                      A
 Frequencies --   3026.6770              3036.2471              3039.9803
 Red. masses --      1.0959                 1.0394                 1.0342
 Frc consts  --      5.9149                 5.6458                 5.6312
 IR Inten    --     40.8290                52.8909                17.4060

                     85                     86                     87
                      A                      A                      A
 Frequencies --   3046.1065              3075.7607              3100.4057
 Red. masses --      1.0345                 1.1066                 1.0865
 Frc consts  --      5.6555                 6.1683                 6.1536
 IR Inten    --     60.5578                57.3838                 9.6005

                     88                     89                     90
                      A                      A                      A
 Frequencies --   3103.8860              3108.0824              3115.2370
 Red. masses --      1.1069                 1.1059                 1.0977
 Frc consts  --      6.2828                 6.2943                 6.2767
 IR Inten    --     63.6602                41.4090                39.5101

                     91                     92                     93
                      A                      A                      A
 Frequencies --   3163.6336              3165.9743              3171.0148
 Red. masses --      1.0995                 1.1041                 1.1007
 Frc consts  --      6.4839                 6.5206                 6.5213
 IR Inten    --     26.3996                25.0140                16.6663

                     94                     95                     96
                      A                      A                      A
 Frequencies --   3183.0515              3183.3363              3194.5322
 Red. masses --      1.0992                 1.0901                 1.0951
 Frc consts  --      6.5614                 6.5084                 6.5846
 IR Inten    --     13.6472                 2.7910                 2.8704

 - Thermochemistry -
 -------------------
 Temperature   298.150 Kelvin.  Pressure   1.00000 Atm.
 Atom     1 has atomic number  6 and mass  12.00000

 Molecular mass:   219.12325 amu.
 Principal axes and moments of inertia in atomic units:
                           1         2         3
     Eigenvalues --  2785.407893985.422965567.57734
           X            0.99998   0.00018   0.00572
           Y           -0.00016   0.99999  -0.00460
           Z           -0.00572   0.00460   0.99997
 This molecule is an asymmetric top.
 Rotational symmetry number  1.
 Warning -- assumption of classical behavior for rotation
           may cause significant error
 Rotational temperatures (Kelvin)      0.03110     0.02173     0.01556
 Rotational constants (GHZ):           0.64793     0.45284     0.32415
 Zero-point vibrational energy     774118.1 (Joules/Mol)
                                  185.01868 (Kcal/Mol)
 Warning -- explicit consideration of  26 degrees of freedom as
           vibrations may cause significant error
 Vibrational temperatures:     37.25    87.53   121.27   132.53   145.90
          (Kelvin)            162.95   174.02   225.01   252.69   280.53
                              291.01   301.89   319.73   353.67   370.19
                              389.00   434.10   446.99   516.23   521.50
                              559.48   605.76   666.93   758.72   781.12
                              876.66   896.71  1035.18  1077.34  1209.12
                             1360.19  1367.41  1393.68  1423.61  1464.77
                             1501.67  1521.28  1563.56  1594.41  1619.69
                             1636.25  1674.03  1675.91  1687.66  1710.08
                             1711.44  1713.60  1714.85  1747.99  1762.08
                             1776.47  1782.29  1796.69  1843.12  1868.50
                             1891.40  1923.16  1951.89  1990.91  2031.34
                             2043.59  2075.74  2089.58  2155.73  2157.55
                             2161.07  2164.88  2173.60  2175.57  2186.68
                             2188.72  2192.80  2199.90  2203.75  2207.92
                             2228.42  2365.72  4294.77  4307.44  4345.69
                             4349.06  4354.71  4368.48  4373.85  4382.67
                             4425.33  4460.79  4465.80  4471.84  4482.13
                             4551.76  4555.13  4562.38  4579.70  4580.11
                             4596.22

 Zero-point correction=                           0.294846 (Hartree/Particle)
 Thermal correction to Energy=                    0.311951
 Thermal correction to Enthalpy=                  0.312895
 Thermal correction to Gibbs Free Energy=         0.249875
 Sum of electronic and zero-point Energies=           -768.028562
 Sum of electronic and thermal Energies=              -768.011457
 Sum of electronic and thermal Enthalpies=            -768.010513
 Sum of electronic and thermal Free Energies=         -768.073532

                     E (Thermal)             CV                S
                      KCal/Mol        Cal/Mol-Kelvin    Cal/Mol-Kelvin
 Total                  195.752             61.487            132.636
 Electronic               0.000              0.000              0.000
 Translational            0.889              2.981             42.056
 Rotational               0.889              2.981             32.491
 Vibrational            193.974             55.526             58.088
 Vibration     1          0.593              1.985              6.122
 Vibration     2          0.597              1.973              4.430
 Vibration     3          0.601              1.960              3.788
 Vibration     4          0.602              1.955              3.615
 Vibration     5          0.604              1.948              3.427
 Vibration     6          0.607              1.938              3.212
 Vibration     7          0.609              1.932              3.085
 Vibration     8          0.620              1.896              2.593
 Vibration     9          0.628              1.872              2.374
 Vibration    10          0.636              1.847              2.180
 Vibration    11          0.639              1.837              2.112
 Vibration    12          0.642              1.826              2.045
 Vibration    13          0.648              1.807              1.941
 Vibration    14          0.660              1.770              1.760
 Vibration    15          0.667              1.750              1.680
 Vibration    16          0.674              1.728              1.594
 Vibration    17          0.694              1.670              1.407
 Vibration    18          0.700              1.653              1.359
 Vibration    19          0.734              1.557              1.127
 Vibration    20          0.736              1.550              1.112
 Vibration    21          0.757              1.494              1.005
 Vibration    22          0.784              1.425              0.888
 Vibration    23          0.821              1.331              0.756
 Vibration    24          0.882              1.189              0.593
 Vibration    25          0.898              1.155              0.559
 Vibration    26          0.968              1.012              0.434

                           ! Non-Optimized Parameters !
 Normal termination of Gaussian 16 at Fri May 24 08:54:35 2019.
