 Gaussian 16, Revision A.03,
 Gaussian 16:  ES64L-G16RevA.03 25-Dec-2016

 -------------------------------------------------------------------
 #p b3lyp 6-31g* opt freq=noraman scrf=(pcm,solvent=tetrahydrofuran)
 -------------------------------------------------------------------

 -----
 title
 -----
 Symbolic Z-matrix:
 Charge =  1 Multiplicity = 1

 SCF Done:  E(RB3LYP) =  -768.316985518     A.U. after   15 cycles
 Optimization completed.
    -- Stationary point found.
 Normal termination of Gaussian 16 at Fri May 24 08:36:06 2019.

 --------------------------------------------------------------------
 #P Geom=AllCheck Guess=TCheck SCRF=Check GenChk RB3LYP/6-31G(d) Freq
 --------------------------------------------------------------------

 Structure from the checkpoint file:  "/scratch/Gau-8997.chk"
 -----
 title
 -----
 Charge =  1 Multiplicity = 1

                         Standard orientation:
 ---------------------------------------------------------------------
 Center     Atomic      Atomic             Coordinates (Angstroms)
 Number     Number       Type             X           Y           Z
 ---------------------------------------------------------------------
      1          6           0        1.138114    0.500561   -0.096479
      2          6           0        1.706395   -0.868527   -0.563528
      3          6           0        0.697289   -1.978697   -0.543080
      4          6           0       -1.200806   -0.510676   -0.153726
      5          6           0       -0.292780    0.623454   -0.665582
      6          1           0        1.038074   -3.008937   -0.667641
      7          1           0        1.929130   -0.750809   -1.639839
      8          1           0        1.118928    0.534797    1.002028
      9          1           0       -1.297608   -0.516244    0.933821
     10          1           0       -0.224220    0.530965   -1.756731
     11          8           0       -0.543877   -1.850870   -0.414910
     12          8           0        2.906533   -1.318532    0.009784
     13          8           0        1.885459    1.562312   -0.622304
     14          8           0       -0.914740    1.864498   -0.466417
     15          6           0       -2.596313   -0.566404   -0.799996
     16          1           0       -2.890036   -1.617484   -0.928222
     17          1           0       -2.568592   -0.090433   -1.783746
     18          8           0       -3.524804    0.146083   -0.016139
     19          6           0        2.880403   -1.559587    1.426876
     20          1           0        3.810019   -2.082199    1.652673
     21          1           0        2.843806   -0.624807    1.995340
     22          1           0        2.033387   -2.197066    1.715441
     23          6           0        3.089178    1.885354    0.081079
     24          1           0        3.838446    1.092964   -0.016670
     25          1           0        3.466896    2.802640   -0.373644
     26          1           0        2.884769    2.069179    1.144147
     27          6           0       -1.005863    2.364995    0.870974
     28          1           0       -0.016144    2.542126    1.305046
     29          1           0       -1.529438    3.318188    0.785515
     30          1           0       -1.587918    1.703756    1.522515
     31          6           0       -4.143484   -0.634176    1.004143
     32          1           0       -4.845974    0.025951    1.516050
     33          1           0       -3.416806   -1.013515    1.736910
     34          1           0       -4.688084   -1.484774    0.572789
 ---------------------------------------------------------------------

 SCF Done:  E(RB3LYP) =  -768.316985518     A.U. after    1 cycles

 The electronic state is 1-A.
 Alpha  occ. eigenvalues --  -19.33846 -19.21524 -19.19452 -19.19073 -19.18583
 Alpha  occ. eigenvalues --  -10.40366 -10.32234 -10.32168 -10.29901 -10.29753
 Alpha  occ. eigenvalues --  -10.27839 -10.26748 -10.25156 -10.24964 -10.24920
 Alpha  occ. eigenvalues --   -1.22370  -1.10032  -1.08391  -1.06823  -1.06357
 Alpha  occ. eigenvalues --   -0.87297  -0.86014  -0.77737  -0.75467  -0.73962
 Alpha  occ. eigenvalues --   -0.72473  -0.68989  -0.67729  -0.65800  -0.63176
 Alpha  occ. eigenvalues --   -0.60737  -0.58885  -0.56110  -0.55582  -0.53689
 Alpha  occ. eigenvalues --   -0.52427  -0.52029  -0.51116  -0.50551  -0.49631
 Alpha  occ. eigenvalues --   -0.48702  -0.48114  -0.46377  -0.46053  -0.45321
 Alpha  occ. eigenvalues --   -0.44217  -0.43849  -0.42645  -0.42244  -0.40930
 Alpha  occ. eigenvalues --   -0.39641  -0.37329  -0.36135  -0.35005  -0.34364
 Alpha  occ. eigenvalues --   -0.33379  -0.30341  -0.29333  -0.28690
 Alpha virt. eigenvalues --   -0.16047  -0.01142   0.04131   0.04475   0.06174
 Alpha virt. eigenvalues --    0.07280   0.07569   0.08313   0.09513   0.10485
 Alpha virt. eigenvalues --    0.10587   0.11191   0.11829   0.12913   0.13036

 Mulliken charges:
               1
     1  C    0.101122
     2  C    0.039209
     3  C    0.277793
     4  C    0.059561
     5  C    0.094040
     6  H    0.285155
     7  H    0.260646
     8  H    0.171966
     9  H    0.233775
    10  H    0.193550
    11  O   -0.306354
    12  O   -0.466087
    13  O   -0.481969
    14  O   -0.467915
    15  C   -0.054573
    16  H    0.179737
    17  H    0.195756
    18  O   -0.461102
    19  C   -0.245363
    20  H    0.205616
    21  H    0.179933
    22  H    0.164564
    23  C   -0.229106
    24  H    0.171687
    25  H    0.185036
    26  H    0.158913
    27  C   -0.235971
    28  H    0.166781
    29  H    0.191002
    30  H    0.160781
    31  C   -0.224575
    32  H    0.184524
    33  H    0.149223
    34  H    0.162644
 Sum of Mulliken charges =   1.00000

 Dipole moment (field-independent basis, Debye):
    X=              1.7815    Y=             -6.6860    Z=              2.3548  Tot=              7.3090
 Quadrupole moment (field-independent basis, Debye-Ang):
   XX=            -70.0705   YY=            -72.5379   ZZ=            -77.9873
   XY=              2.8600   XZ=              0.7563   YZ=              6.1150

  Exact polarizability: 165.325  -3.147 143.889  -2.247   4.198 120.926
 Approx polarizability: 176.009  -5.390 164.704  -4.197   1.180 147.700

                      1                      2                      3
                      A                      A                      A
 Frequencies --     44.7636                54.8046                61.6702
 Red. masses --      3.2595                 3.6739                 2.0192
 Frc consts  --      0.0038                 0.0065                 0.0045
 IR Inten    --      0.7233                 0.7923                 4.0500

                      4                      5                      6
                      A                      A                      A
 Frequencies --     72.6435                97.7197               118.7062
 Red. masses --      2.8470                 2.3459                 2.6827
 Frc consts  --      0.0089                 0.0132                 0.0223
 IR Inten    --      1.3894                 5.7364                 0.9401

                      7                      8                      9
                      A                      A                      A
 Frequencies --    121.9343               144.1582               168.5239
 Red. masses --      2.1278                 1.8472                 1.5289
 Frc consts  --      0.0186                 0.0226                 0.0256
 IR Inten    --      0.8713                 0.7971                 0.6424

                     10                     11                     12
                      A                      A                      A
 Frequencies --    179.2216               181.8156               202.3593
 Red. masses --      2.4299                 1.4182                 2.3188
 Frc consts  --      0.0460                 0.0276                 0.0559
 IR Inten    --      1.9319                 2.2206                 7.8102

                     13                     14                     15
                      A                      A                      A
 Frequencies --    223.1305               238.2553               252.9163
 Red. masses --      2.5381                 2.7827                 1.5895
 Frc consts  --      0.0745                 0.0931                 0.0599
 IR Inten    --      5.0056                 2.7659                 1.8443

                     16                     17                     18
                      A                      A                      A
 Frequencies --    297.8813               301.4335               315.0893
 Red. masses --      4.0867                 4.2245                 3.6994
 Frc consts  --      0.2137                 0.2262                 0.2164
 IR Inten    --     20.4561                 7.6474                 1.2991

                     19                     20                     21
                      A                      A                      A
 Frequencies --    348.3462               394.5493               419.6249
 Red. masses --      3.6685                 3.9729                 3.8134
 Frc consts  --      0.2623                 0.3644                 0.3956
 IR Inten    --      2.3011                22.1497                 8.5683

                     22                     23                     24
                      A                      A                      A
 Frequencies --    440.4292               447.8035               492.8148
 Red. masses --      4.6919                 2.9106                 5.4410
 Frc consts  --      0.5362                 0.3439                 0.7786
 IR Inten    --     23.0377                13.5557                 6.8411

                     25                     26                     27
                      A                      A                      A
 Frequencies --    526.3113               576.2491               631.1241
 Red. masses --      3.3260                 3.5260                 2.8332
 Frc consts  --      0.5428                 0.6899                 0.6649
 IR Inten    --     17.2073                 6.6786                12.2114

                     28                     29                     30
                      A                      A                      A
 Frequencies --    708.5684               781.6195               843.2299
 Red. masses --      5.1556                 4.9745                 2.3722
 Frc consts  --      1.5251                 1.7906                 0.9938
 IR Inten    --     30.8635                84.2673                18.6299

                     31                     32                     33
                      A                      A                      A
 Frequencies --    915.4735               926.9451               955.0724
 Red. masses --      3.2925                 3.5303                 4.4609
 Frc consts  --      1.6258                 1.7872                 2.3974
 IR Inten    --      8.6654                44.1047                79.7811

                     34                     35                     36
                      A                      A                      A
 Frequencies --    972.0974              1001.3395              1049.7841
 Red. masses --      4.8599                 2.5347                 2.1077
 Frc consts  --      2.7058                 1.4974                 1.3685
 IR Inten    --     27.3314                17.7434                10.2070

                     37                     38                     39
                      A                      A                      A
 Frequencies --   1052.5109              1082.3448              1116.5583
 Red. masses --      4.6337                 2.8846                 2.7611
 Frc consts  --      3.0243                 1.9910                 2.0281
 IR Inten    --     15.1126                48.5191                37.0480

                     40                     41                     42
                      A                      A                      A
 Frequencies --   1124.7647              1144.0570              1152.7988
 Red. masses --      2.3443                 3.6282                 3.1367
 Frc consts  --      1.7474                 2.7979                 2.4560
 IR Inten    --      8.0267               217.5616                60.2453

                     43                     44                     45
                      A                      A                      A
 Frequencies --   1165.5467              1178.2220              1184.8357
 Red. masses --      3.7763                 1.3395                 1.2863
 Frc consts  --      3.0226                 1.0956                 1.0639
 IR Inten    --    186.1294                 7.2398                 3.7509

                     46                     47                     48
                      A                      A                      A
 Frequencies --   1186.2364              1189.5849              1191.8559
 Red. masses --      2.0485                 1.3748                 1.7268
 Frc consts  --      1.6983                 1.1462                 1.4452
 IR Inten    --     80.0318                28.3069                43.3881

                     49                     50                     51
                      A                      A                      A
 Frequencies --   1222.2600              1227.2126              1230.5489
 Red. masses --      1.6613                 1.5284                 1.6394
 Frc consts  --      1.4623                 1.3562                 1.4626
 IR Inten    --     34.9617                48.3438                64.3609

                     52                     53                     54
                      A                      A                      A
 Frequencies --   1239.7572              1271.0841              1287.5331
 Red. masses --      1.7332                 1.5582                 1.5032
 Frc consts  --      1.5696                 1.4833                 1.4682
 IR Inten    --     39.0987                16.4843                32.4086

                     55                     56                     57
                      A                      A                      A
 Frequencies --   1325.3834              1329.9100              1351.6697
 Red. masses --      1.1613                 1.3273                 1.2327
 Frc consts  --      1.2020                 1.3831                 1.3270
 IR Inten    --     26.1894                14.1445                 2.3584

                     58                     59                     60
                      A                      A                      A
 Frequencies --   1363.2843              1381.3014              1408.3735
 Red. masses --      1.2089                 1.3159                 1.3210
 Frc consts  --      1.3238                 1.4793                 1.5438
 IR Inten    --      8.3465                24.9275                10.0052

                     61                     62                     63
                      A                      A                      A
 Frequencies --   1411.3979              1432.4155              1444.5461
 Red. masses --      1.3341                 1.2303                 1.2360
 Frc consts  --      1.5658                 1.4873                 1.5197
 IR Inten    --     24.5754                29.2782                 8.1390

                     64                     65                     66
                      A                      A                      A
 Frequencies --   1496.8147              1497.9901              1503.8293
 Red. masses --      1.1296                 1.1149                 1.1433
 Frc consts  --      1.4911                 1.4740                 1.5234
 IR Inten    --      4.6534                 0.0993                 0.8735

                     67                     68                     69
                      A                      A                      A
 Frequencies --   1507.0793              1512.3349              1513.3449
 Red. masses --      1.1139                 1.0810                 1.0478
 Frc consts  --      1.4906                 1.4567                 1.4139
 IR Inten    --      0.8022                 4.2786                12.1972

                     70                     71                     72
                      A                      A                      A
 Frequencies --   1513.7865              1518.3051              1521.0535
 Red. masses --      1.0490                 1.0766                 1.0599
 Frc consts  --      1.4163                 1.4623                 1.4448
 IR Inten    --     12.4521                 7.2198                10.8866

                     73                     74                     75
                      A                      A                      A
 Frequencies --   1526.2915              1530.3112              1530.5433
 Red. masses --      1.0559                 1.0541                 1.0775
 Frc consts  --      1.4493                 1.4545                 1.4872
 IR Inten    --     12.6376                19.7011                18.7034

                     76                     77                     78
                      A                      A                      A
 Frequencies --   1532.8150              1641.5369              2989.7891
 Red. masses --      1.0526                 7.3139                 1.0786
 Frc consts  --      1.4571                11.6118                 5.6804
 IR Inten    --      8.5702               248.9541                28.4769

                     79                     80                     81
                      A                      A                      A
 Frequencies --   3016.4930              3035.1482              3037.4754
 Red. masses --      1.0376                 1.0425                 1.0394
 Frc consts  --      5.5627                 5.6584                 5.6500
 IR Inten    --     51.1263                27.6577                47.8150

                     82                     83                     84
                      A                      A                      A
 Frequencies --   3040.8945              3042.1842              3051.7641
 Red. masses --      1.0769                 1.0651                 1.0372
 Frc consts  --      5.8671                 5.8076                 5.6914
 IR Inten    --     12.8883                31.1685                65.6429

                     85                     86                     87
                      A                      A                      A
 Frequencies --   3068.1420              3074.7818              3111.7488
 Red. masses --      1.0848                 1.1045                 1.1010
 Frc consts  --      6.0165                 6.1525                 6.2814
 IR Inten    --     19.9356                69.5037                44.3588

                     88                     89                     90
                      A                      A                      A
 Frequencies --   3117.5685              3118.0410              3124.9443
 Red. masses --      1.1043                 1.0989                 1.0982
 Frc consts  --      6.3237                 6.2949                 6.3186
 IR Inten    --     17.6924                70.4757                 7.6942

                     91                     92                     93
                      A                      A                      A
 Frequencies --   3139.7250              3161.4559              3166.7923
 Red. masses --      1.0891                 1.0992                 1.1028
 Frc consts  --      6.3256                 6.4729                 6.5161
 IR Inten    --      9.0278                25.9275                22.7856

                     94                     95                     96
                      A                      A                      A
 Frequencies --   3169.1414              3182.6553              3187.0219
 Red. masses --      1.1016                 1.1023                 1.0939
 Frc consts  --      6.5184                 6.5783                 6.5461
 IR Inten    --     22.8041                13.5791                 1.9131

 - Thermochemistry -
 -------------------
 Temperature   298.150 Kelvin.  Pressure   1.00000 Atm.
 Atom     1 has atomic number  6 and mass  12.00000

 Molecular mass:   219.12325 amu.
 Principal axes and moments of inertia in atomic units:
                           1         2         3
     Eigenvalues --  2015.111014487.907735700.88912
           X            0.99990   0.01381   0.00152
           Y           -0.01383   0.99987   0.00839
           Z           -0.00140  -0.00841   0.99996
 This molecule is an asymmetric top.
 Rotational symmetry number  1.
 Warning -- assumption of classical behavior for rotation
           may cause significant error
 Rotational temperatures (Kelvin)      0.04298     0.01930     0.01519
 Rotational constants (GHZ):           0.89560     0.40213     0.31657
 Zero-point vibrational energy     773901.4 (Joules/Mol)
                                  184.96687 (Kcal/Mol)
 Warning -- explicit consideration of  26 degrees of freedom as
           vibrations may cause significant error
 Vibrational temperatures:     64.40    78.85    88.73   104.52   140.60
          (Kelvin)            170.79   175.44   207.41   242.47   257.86
                              261.59   291.15   321.04   342.80   363.89
                              428.58   433.70   453.34   501.19   567.67
                              603.75   633.68   644.29   709.05   757.24
                              829.09   908.05  1019.47  1124.58  1213.22
                             1317.16  1333.67  1374.14  1398.63  1440.70
                             1510.41  1514.33  1557.25  1606.48  1618.29
                             1646.04  1658.62  1676.96  1695.20  1704.71
                             1706.73  1711.55  1714.81  1758.56  1765.69
                             1770.49  1783.73  1828.81  1852.47  1906.93
                             1913.44  1944.75  1961.46  1987.38  2026.34
                             2030.69  2060.93  2078.38  2153.58  2155.27
                             2163.67  2168.35  2175.91  2177.37  2178.00
                             2184.50  2188.46  2195.99  2201.78  2202.11
                             2205.38  2361.81  4301.64  4340.06  4366.90
                             4370.25  4375.17  4377.02  4390.81  4414.37
                             4423.93  4477.11  4485.49  4486.17  4496.10
                             4517.36  4548.63  4556.31  4559.69  4579.13
                             4585.41

 Zero-point correction=                           0.294763 (Hartree/Particle)
 Thermal correction to Energy=                    0.311998
 Thermal correction to Enthalpy=                  0.312942
 Thermal correction to Gibbs Free Energy=         0.249684
 Sum of electronic and zero-point Energies=           -768.022222
 Sum of electronic and thermal Energies=              -768.004987
 Sum of electronic and thermal Enthalpies=            -768.004043
 Sum of electronic and thermal Free Energies=         -768.067302

                     E (Thermal)             CV                S
                      KCal/Mol        Cal/Mol-Kelvin    Cal/Mol-Kelvin
 Total                  195.782             61.647            133.139
 Electronic               0.000              0.000              0.000
 Translational            0.889              2.981             42.056
 Rotational               0.889              2.981             32.311
 Vibrational            194.004             55.685             58.772
 Vibration     1          0.595              1.979              5.036
 Vibration     2          0.596              1.976              4.636
 Vibration     3          0.597              1.973              4.403
 Vibration     4          0.599              1.967              4.080
 Vibration     5          0.603              1.951              3.499
 Vibration     6          0.609              1.934              3.121
 Vibration     7          0.609              1.931              3.069
 Vibration     8          0.616              1.909              2.748
 Vibration     9          0.625              1.881              2.452
 Vibration    10          0.629              1.868              2.337
 Vibration    11          0.630              1.864              2.310
 Vibration    12          0.639              1.837              2.112
 Vibration    13          0.649              1.806              1.934
 Vibration    14          0.656              1.782              1.816
 Vibration    15          0.664              1.758              1.710
 Vibration    16          0.691              1.678              1.429
 Vibration    17          0.693              1.671              1.409
 Vibration    18          0.702              1.645              1.335
 Vibration    19          0.726              1.579              1.174
 Vibration    20          0.762              1.482              0.983
 Vibration    21          0.782              1.428              0.893
 Vibration    22          0.800              1.382              0.825
 Vibration    23          0.807              1.366              0.802
 Vibration    24          0.849              1.266              0.676
 Vibration    25          0.881              1.192              0.595
 Vibration    26          0.933              1.083              0.492

                           ! Non-Optimized Parameters !
 Normal termination of Gaussian 16 at Fri May 24 09:08:45 2019.
