 Gaussian 16, Revision A.03,
 Gaussian 16:  ES64L-G16RevA.03 25-Dec-2016

 -------------------------------------------------------------------
 #p b3lyp 6-31g* opt freq=noraman scrf=(pcm,solvent=tetrahydrofuran)
 -------------------------------------------------------------------

 -----
 title
 -----
 Symbolic Z-matrix:
 Charge =  1 Multiplicity = 1

 SCF Done:  E(RB3LYP) =  -768.320362549     A.U. after   14 cycles
 Optimization completed.
    -- Stationary point found.
 Normal termination of Gaussian 16 at Fri May 24 08:37:21 2019.

 --------------------------------------------------------------------
 #P Geom=AllCheck Guess=TCheck SCRF=Check GenChk RB3LYP/6-31G(d) Freq
 --------------------------------------------------------------------

 Structure from the checkpoint file:  "/scratch/Gau-14689.chk"
 -----
 title
 -----
 Charge =  1 Multiplicity = 1

                         Standard orientation:
 ---------------------------------------------------------------------
 Center     Atomic      Atomic             Coordinates (Angstroms)
 Number     Number       Type             X           Y           Z
 ---------------------------------------------------------------------
      1          6           0        1.591278   -0.444700   -0.227492
      2          6           0        1.565069    1.108674   -0.039087
      3          6           0        0.660345    1.448910    1.104077
      4          6           0       -0.958486   -0.045808    0.146938
      5          6           0        0.159496   -1.062410   -0.150019
      6          1           0        0.910621    2.133439    1.915633
      7          1           0        2.576417    1.488867    0.134523
      8          1           0        1.945894   -0.576940   -1.253094
      9          1           0       -1.149257    0.558426   -0.739487
     10          1           0        0.159963   -1.829060    0.638073
     11          8           0       -0.493535    0.952751    1.181083
     12          8           0        0.978064    1.638693   -1.215654
     13          8           0        2.544595   -1.068799    0.594649
     14          8           0       -0.236858   -1.628226   -1.381588
     15          6           0       -2.225013   -0.657831    0.730271
     16          1           0       -2.001712   -1.083290    1.714502
     17          1           0       -2.521713   -1.476903    0.059920
     18          8           0       -3.251673    0.287293    0.909054
     19          6           0        1.290442    3.017979   -1.490377
     20          1           0        2.375036    3.171386   -1.491433
     21          1           0        0.889063    3.211521   -2.485440
     22          1           0        0.818292    3.695020   -0.770444
     23          6           0        2.357854   -0.958124    1.999082
     24          1           0        2.378923    0.096005    2.329067
     25          1           0        1.424219   -1.419634    2.343946
     26          1           0        3.200373   -1.470626    2.465274
     27          6           0        0.285536   -2.938196   -1.617300
     28          1           0       -0.109545   -3.253177   -2.584237
     29          1           0        1.381881   -2.936153   -1.658038
     30          1           0       -0.044623   -3.638356   -0.838814
     31          6           0       -4.029718    0.537453   -0.258905
     32          1           0       -4.804356    1.249698    0.031640
     33          1           0       -3.433741    0.975577   -1.071572
     34          1           0       -4.501292   -0.385181   -0.623482
 ---------------------------------------------------------------------

 SCF Done:  E(RB3LYP) =  -768.320362549     A.U. after    1 cycles

 The electronic state is 1-A.
 Alpha  occ. eigenvalues --  -19.32897 -19.22126 -19.20343 -19.19430 -19.18197
 Alpha  occ. eigenvalues --  -10.39520 -10.31825 -10.31483 -10.29860 -10.29799
 Alpha  occ. eigenvalues --  -10.27479 -10.26812 -10.26534 -10.25210 -10.24651
 Alpha  occ. eigenvalues --   -1.21691  -1.10014  -1.08677  -1.07478  -1.06386
 Alpha  occ. eigenvalues --   -0.86917  -0.85260  -0.77258  -0.75628  -0.74428
 Alpha  occ. eigenvalues --   -0.71566  -0.69549  -0.68346  -0.65491  -0.61861
 Alpha  occ. eigenvalues --   -0.61154  -0.58632  -0.57218  -0.54792  -0.53316
 Alpha  occ. eigenvalues --   -0.52300  -0.51097  -0.50592  -0.50242  -0.50023
 Alpha  occ. eigenvalues --   -0.49168  -0.48112  -0.47699  -0.46151  -0.45670
 Alpha  occ. eigenvalues --   -0.44207  -0.43554  -0.42677  -0.41006  -0.40916
 Alpha  occ. eigenvalues --   -0.40197  -0.37751  -0.36551  -0.35845  -0.34766
 Alpha  occ. eigenvalues --   -0.33190  -0.31644  -0.29335  -0.28287
 Alpha virt. eigenvalues --   -0.16108   0.00845   0.04014   0.05424   0.06244
 Alpha virt. eigenvalues --    0.06856   0.07937   0.08386   0.09011   0.09775
 Alpha virt. eigenvalues --    0.10680   0.11265   0.12301   0.12328   0.13057

 Mulliken charges:
               1
     1  C    0.100482
     2  C    0.018926
     3  C    0.270754
     4  C    0.049152
     5  C    0.093402
     6  H    0.283873
     7  H    0.218904
     8  H    0.220390
     9  H    0.244988
    10  H    0.180523
    11  O   -0.298528
    12  O   -0.465766
    13  O   -0.460061
    14  O   -0.487045
    15  C   -0.046931
    16  H    0.186372
    17  H    0.185284
    18  O   -0.470243
    19  C   -0.230719
    20  H    0.181362
    21  H    0.202077
    22  H    0.175343
    23  C   -0.248581
    24  H    0.152130
    25  H    0.173885
    26  H    0.208303
    27  C   -0.227258
    28  H    0.187106
    29  H    0.167260
    30  H    0.164650
    31  C   -0.224802
    32  H    0.180800
    33  H    0.153236
    34  H    0.160734
 Sum of Mulliken charges =   1.00000

 Dipole moment (field-independent basis, Debye):
    X=              2.9952    Y=              3.2047    Z=              2.1160  Tot=              4.8702
 Quadrupole moment (field-independent basis, Debye-Ang):
   XX=            -74.8458   YY=            -62.0684   ZZ=            -77.7680
   XY=              8.5899   XZ=              8.8250   YZ=             -0.1404

  Exact polarizability: 152.396   0.063 148.907   6.758  -1.249 134.983
 Approx polarizability: 169.787  -3.466 164.156   4.132   2.550 163.088

                      1                      2                      3
                      A                      A                      A
 Frequencies --     21.4654                46.2366                53.4371
 Red. masses --      3.3253                 2.2365                 3.2328
 Frc consts  --      0.0009                 0.0028                 0.0054
 IR Inten    --      1.1226                 1.5851                 2.4670

                      4                      5                      6
                      A                      A                      A
 Frequencies --     74.0874                84.5329               108.2385
 Red. masses --      2.7734                 2.4531                 1.7689
 Frc consts  --      0.0090                 0.0103                 0.0122
 IR Inten    --      5.0583                 0.4620                 4.2796

                      7                      8                      9
                      A                      A                      A
 Frequencies --    122.8751               133.2702               155.3271
 Red. masses --      2.2859                 2.4716                 2.2401
 Frc consts  --      0.0203                 0.0259                 0.0318
 IR Inten    --      2.4229                 1.1811                 3.7698

                     10                     11                     12
                      A                      A                      A
 Frequencies --    169.7814               188.5590               211.6547
 Red. masses --      1.3586                 2.4351                 2.2702
 Frc consts  --      0.0231                 0.0510                 0.0599
 IR Inten    --      0.8690                 5.3918                14.9834

                     13                     14                     15
                      A                      A                      A
 Frequencies --    218.9058               260.3654               275.5737
 Red. masses --      2.0870                 3.6933                 1.6534
 Frc consts  --      0.0589                 0.1475                 0.0740
 IR Inten    --      1.9832                20.1012                 6.1483

                     16                     17                     18
                      A                      A                      A
 Frequencies --    292.7995               316.1243               326.2057
 Red. masses --      3.7746                 3.4278                 2.7822
 Frc consts  --      0.1907                 0.2018                 0.1744
 IR Inten    --      2.9039                 5.3113                 8.3983

                     19                     20                     21
                      A                      A                      A
 Frequencies --    335.2729               382.8865               420.9552
 Red. masses --      3.0220                 4.5228                 3.6749
 Frc consts  --      0.2001                 0.3907                 0.3837
 IR Inten    --     15.2366                 0.6669                 6.6184

                     22                     23                     24
                      A                      A                      A
 Frequencies --    436.3059               471.9581               498.6694
 Red. masses --      2.2966                 3.8139                 5.5888
 Frc consts  --      0.2576                 0.5005                 0.8188
 IR Inten    --      9.7639                24.7821                 1.1169

                     25                     26                     27
                      A                      A                      A
 Frequencies --    513.9403               587.6910               623.7265
 Red. masses --      3.5243                 3.4916                 3.9121
 Frc consts  --      0.5485                 0.7105                 0.8967
 IR Inten    --     27.3761                22.2656                29.2142

                     28                     29                     30
                      A                      A                      A
 Frequencies --    720.7016               841.8947               886.9544
 Red. masses --      4.0734                 4.3530                 3.8187
 Frc consts  --      1.2466                 1.8178                 1.7700
 IR Inten    --     41.3703                45.2198                21.9176

                     31                     32                     33
                      A                      A                      A
 Frequencies --    906.7321               938.2603               940.8321
 Red. masses --      3.0803                 4.1251                 3.9720
 Frc consts  --      1.4921                 2.1396                 2.0715
 IR Inten    --     49.5658                59.6674                54.8084

                     34                     35                     36
                      A                      A                      A
 Frequencies --    960.2483               999.4652              1013.8985
 Red. masses --      3.3193                 3.4906                 3.2191
 Frc consts  --      1.8033                 2.0544                 1.9497
 IR Inten    --     25.9446                12.2182                37.7347

                     37                     38                     39
                      A                      A                      A
 Frequencies --   1024.1052              1078.8234              1103.7573
 Red. masses --      2.5186                 3.0335                 2.7574
 Frc consts  --      1.5563                 2.0801                 1.9793
 IR Inten    --      7.6330                32.7717                35.0833

                     40                     41                     42
                      A                      A                      A
 Frequencies --   1111.8047              1128.5413              1138.5478
 Red. masses --      5.0299                 2.6563                 3.6256
 Frc consts  --      3.6633                 1.9933                 2.7691
 IR Inten    --    224.9350                25.9309               199.6423

                     43                     44                     45
                      A                      A                      A
 Frequencies --   1145.3302              1165.2429              1183.1849
 Red. masses --      4.1951                 3.4578                 1.2872
 Frc consts  --      3.2423                 2.7662                 1.0617
 IR Inten    --    169.2536                40.6721                27.9444

                     46                     47                     48
                      A                      A                      A
 Frequencies --   1184.9576              1186.3240              1188.1618
 Red. masses --      1.2696                 1.3142                 1.2937
 Frc consts  --      1.0503                 1.0897                 1.0761
 IR Inten    --      7.0469                 4.5735                 5.6996

                     49                     50                     51
                      A                      A                      A
 Frequencies --   1212.2960              1224.0518              1233.5107
 Red. masses --      1.4611                 1.4663                 1.6371
 Frc consts  --      1.2652                 1.2944                 1.4676
 IR Inten    --      7.4781                17.2788               109.5875

                     52                     53                     54
                      A                      A                      A
 Frequencies --   1234.9781              1241.6921              1274.6219
 Red. masses --      1.6176                 1.4556                 1.3526
 Frc consts  --      1.4536                 1.3223                 1.2947
 IR Inten    --     26.9106                23.8748                20.8255

                     55                     56                     57
                      A                      A                      A
 Frequencies --   1318.0278              1335.9909              1342.2917
 Red. masses --      1.2574                 1.2430                 1.1559
 Frc consts  --      1.2870                 1.3071                 1.2270
 IR Inten    --     18.7360                 0.8401                37.2027

                     58                     59                     60
                      A                      A                      A
 Frequencies --   1354.9218              1377.0814              1388.0298
 Red. masses --      1.2426                 1.2739                 1.3974
 Frc consts  --      1.3440                 1.4234                 1.5862
 IR Inten    --      3.5486                11.8113                 2.7297

                     61                     62                     63
                      A                      A                      A
 Frequencies --   1411.5695              1423.1824              1434.2691
 Red. masses --      1.2944                 1.3756                 1.3649
 Frc consts  --      1.5195                 1.6416                 1.6543
 IR Inten    --     30.2391                18.6675                34.4796

                     64                     65                     66
                      A                      A                      A
 Frequencies --   1492.3117              1493.0988              1497.7153
 Red. masses --      1.1089                 1.0945                 1.1231
 Frc consts  --      1.4550                 1.4376                 1.4843
 IR Inten    --      2.3506                 1.7247                 1.8895

                     67                     68                     69
                      A                      A                      A
 Frequencies --   1503.2217              1508.1980              1512.2605
 Red. masses --      1.0843                 1.0961                 1.0488
 Frc consts  --      1.4436                 1.4689                 1.4132
 IR Inten    --      8.6578                10.2199                11.8078

                     70                     71                     72
                      A                      A                      A
 Frequencies --   1513.4623              1519.3012              1520.6759
 Red. masses --      1.0602                 1.0765                 1.0687
 Frc consts  --      1.4308                 1.4640                 1.4560
 IR Inten    --     10.3742                21.1303                 4.8720

                     73                     74                     75
                      A                      A                      A
 Frequencies --   1521.5735              1525.9359              1528.7080
 Red. masses --      1.0987                 1.0622                 1.0729
 Frc consts  --      1.4987                 1.4572                 1.4773
 IR Inten    --      7.0061                18.0476                11.7958

                     76                     77                     78
                      A                      A                      A
 Frequencies --   1535.7557              1629.9812              2969.3653
 Red. masses --      1.0496                 5.9727                 1.0546
 Frc consts  --      1.4586                 9.3494                 5.4788
 IR Inten    --     14.9495               175.0338               103.8031

                     79                     80                     81
                      A                      A                      A
 Frequencies --   3020.9813              3022.4493              3033.2067
 Red. masses --      1.0363                 1.0814                 1.0368
 Frc consts  --      5.5721                 5.8204                 5.6202
 IR Inten    --     48.4516                24.5072                56.8084

                     82                     83                     84
                      A                      A                      A
 Frequencies --   3043.0771              3053.3949              3074.0089
 Red. masses --      1.0628                 1.0326                 1.0838
 Frc consts  --      5.7988                 5.6721                 6.0341
 IR Inten    --     23.8744                56.6294                57.8000

                     85                     86                     87
                      A                      A                      A
 Frequencies --   3077.1292              3094.8958              3108.4548
 Red. masses --      1.1061                 1.1066                 1.0883
 Frc consts  --      6.1710                 6.2452                 6.1959
 IR Inten    --     72.9120                47.9400                18.3574

                     88                     89                     90
                      A                      A                      A
 Frequencies --   3112.2972              3118.8148              3127.1675
 Red. masses --      1.1012                 1.0865                 1.1067
 Frc consts  --      6.2848                 6.2268                 6.3765
 IR Inten    --     16.5022                 3.0245                24.2800

                     91                     92                     93
                      A                      A                      A
 Frequencies --   3157.8837              3169.6768              3170.1606
 Red. masses --      1.0997                 1.1006                 1.0976
 Frc consts  --      6.4610                 6.5148                 6.4990
 IR Inten    --     29.4267                24.2386                12.6249

                     94                     95                     96
                      A                      A                      A
 Frequencies --   3171.5671              3182.3773              3195.5283
 Red. masses --      1.0864                 1.1032                 1.0950
 Frc consts  --      6.4383                 6.5829                 6.5878
 IR Inten    --      0.8938                 9.7823                 1.4938

 - Thermochemistry -
 -------------------
 Temperature   298.150 Kelvin.  Pressure   1.00000 Atm.
 Atom     1 has atomic number  6 and mass  12.00000

 Molecular mass:   219.12325 amu.
 Principal axes and moments of inertia in atomic units:
                           1         2         3
     Eigenvalues --  2739.728383886.894104689.99519
           X            0.99963   0.01737   0.02115
           Y           -0.01689   0.99960  -0.02254
           Z           -0.02153   0.02218   0.99952
 This molecule is an asymmetric top.
 Rotational symmetry number  1.
 Warning -- assumption of classical behavior for rotation
           may cause significant error
 Rotational temperatures (Kelvin)      0.03161     0.02228     0.01847
 Rotational constants (GHZ):           0.65873     0.46431     0.38481
 Zero-point vibrational energy     772726.4 (Joules/Mol)
                                  184.68604 (Kcal/Mol)
 Warning -- explicit consideration of  26 degrees of freedom as
           vibrations may cause significant error
 Vibrational temperatures:     30.88    66.52    76.88   106.60   121.62
          (Kelvin)            155.73   176.79   191.75   223.48   244.28
                              271.29   304.52   314.96   374.61   396.49
                              421.27   454.83   469.34   482.38   550.89
                              605.66   627.75   679.04   717.47   739.45
                              845.56   897.40  1036.93  1211.30  1276.13
                             1304.59  1349.95  1353.65  1381.58  1438.01
                             1458.77  1473.46  1552.19  1588.06  1599.64
                             1623.72  1638.12  1647.87  1676.52  1702.34
                             1704.89  1706.86  1709.50  1744.22  1761.14
                             1774.75  1776.86  1786.52  1833.90  1896.35
                             1922.19  1931.26  1949.43  1981.31  1997.07
                             2030.93  2047.64  2063.59  2147.10  2148.24
                             2154.88  2162.80  2169.96  2175.81  2177.53
                             2185.94  2187.91  2189.20  2195.48  2199.47
                             2209.61  2345.18  4272.25  4346.52  4348.63
                             4364.11  4378.31  4393.15  4422.81  4427.30
                             4452.86  4472.37  4477.90  4487.28  4499.30
                             4543.49  4560.46  4561.15  4563.18  4578.73
                             4597.65

 Zero-point correction=                           0.294316 (Hartree/Particle)
 Thermal correction to Energy=                    0.311634
 Thermal correction to Enthalpy=                  0.312578
 Thermal correction to Gibbs Free Energy=         0.248197
 Sum of electronic and zero-point Energies=           -768.026047
 Sum of electronic and thermal Energies=              -768.008729
 Sum of electronic and thermal Enthalpies=            -768.007785
 Sum of electronic and thermal Free Energies=         -768.072165

                     E (Thermal)             CV                S
                      KCal/Mol        Cal/Mol-Kelvin    Cal/Mol-Kelvin
 Total                  195.553             61.647            135.500
 Electronic               0.000              0.000              0.000
 Translational            0.889              2.981             42.056
 Rotational               0.889              2.981             32.279
 Vibrational            193.776             55.685             61.164
 Vibration     1          0.593              1.985              6.494
 Vibration     2          0.595              1.979              4.972
 Vibration     3          0.596              1.976              4.686
 Vibration     4          0.599              1.966              4.042
 Vibration     5          0.601              1.960              3.783
 Vibration     6          0.606              1.943              3.300
 Vibration     7          0.610              1.930              3.055
 Vibration     8          0.613              1.920              2.898
 Vibration     9          0.620              1.897              2.606
 Vibration    10          0.625              1.880              2.438
 Vibration    11          0.633              1.856              2.242
 Vibration    12          0.643              1.823              2.029
 Vibration    13          0.647              1.812              1.968
 Vibration    14          0.668              1.745              1.659
 Vibration    15          0.677              1.719              1.561
 Vibration    16          0.688              1.687              1.458
 Vibration    17          0.703              1.643              1.330
 Vibration    18          0.710              1.623              1.279
 Vibration    19          0.716              1.605              1.235
 Vibration    20          0.752              1.507              1.028
 Vibration    21          0.783              1.425              0.889
 Vibration    22          0.797              1.391              0.838
 Vibration    23          0.829              1.312              0.732
 Vibration    24          0.854              1.253              0.661
 Vibration    25          0.869              1.219              0.624
 Vibration    26          0.945              1.058              0.471

                           ! Non-Optimized Parameters !
 Normal termination of Gaussian 16 at Fri May 24 09:26:53 2019.
