 Gaussian 16, Revision A.03,
 Gaussian 16:  ES64L-G16RevA.03 25-Dec-2016

 -------------------------------------------------------------------
 #p b3lyp 6-31g* opt freq=noraman scrf=(pcm,solvent=tetrahydrofuran)
 -------------------------------------------------------------------

 -----
 title
 -----
 Symbolic Z-matrix:
 Charge =  1 Multiplicity = 1

 SCF Done:  E(RB3LYP) =  -768.322102536     A.U. after   13 cycles
 SCF Done:  E(RB3LYP) =  -768.322102499     A.U. after    6 cycles
 Optimization completed.
    -- Stationary point found.
 Normal termination of Gaussian 16 at Fri May 24 08:49:19 2019.

 --------------------------------------------------------------------
 #P Geom=AllCheck Guess=TCheck SCRF=Check GenChk RB3LYP/6-31G(d) Freq
 --------------------------------------------------------------------

 Structure from the checkpoint file:  "/scratch/Gau-59238.chk"
 -----
 title
 -----
 Charge =  1 Multiplicity = 1

                         Standard orientation:
 ---------------------------------------------------------------------
 Center     Atomic      Atomic             Coordinates (Angstroms)
 Number     Number       Type             X           Y           Z
 ---------------------------------------------------------------------
      1          6           0        0.986876    0.627240    0.717584
      2          6           0        1.441861    0.177158   -0.695170
      3          6           0        0.393033   -0.549214   -1.479937
      4          6           0       -1.317117   -0.401801    0.256920
      5          6           0       -0.215139   -0.169337    1.297045
      6          1           0        0.647119   -0.957684   -2.458348
      7          1           0        1.741137    1.064621   -1.267653
      8          1           0        1.837688    0.501029    1.398045
      9          1           0       -1.922704   -1.265786    0.530371
     10          1           0       -0.647018    0.497962    2.048687
     11          8           0       -0.751938   -0.864314   -1.074145
     12          8           0        2.473346   -0.794426   -0.660075
     13          8           0        0.549298    1.972055    0.658978
     14          8           0        0.131357   -1.324891    2.027258
     15          6           0       -2.203333    0.813063   -0.063000
     16          1           0       -1.582729    1.631253   -0.437204
     17          1           0       -2.652929    1.135791    0.887905
     18          8           0       -3.173958    0.535033   -1.039055
     19          6           0        3.634515   -0.487911   -1.452917
     20          1           0        4.337920   -1.301640   -1.276792
     21          1           0        3.387102   -0.439609   -2.518892
     22          1           0        4.069782    0.464136   -1.128839
     23          6           0        1.592355    2.946814    0.720575
     24          1           0        2.275819    2.875062   -0.136695
     25          1           0        1.101606    3.920826    0.700145
     26          1           0        2.168197    2.841225    1.648216
     27          6           0        0.580985   -2.487800    1.327911
     28          1           0        0.746509   -3.244457    2.096555
     29          1           0       -0.177889   -2.868102    0.630778
     30          1           0        1.518956   -2.310535    0.791385
     31          6           0       -4.343449   -0.115562   -0.546527
     32          1           0       -5.030379   -0.197195   -1.390874
     33          1           0       -4.131337   -1.124311   -0.166660
     34          1           0       -4.815214    0.473864    0.251268
 ---------------------------------------------------------------------

 SCF Done:  E(RB3LYP) =  -768.322102499     A.U. after    1 cycles

 The electronic state is 1-A.
 Alpha  occ. eigenvalues --  -19.32687 -19.22592 -19.19907 -19.19038 -19.18396
 Alpha  occ. eigenvalues --  -10.39444 -10.31942 -10.31703 -10.29629 -10.29599
 Alpha  occ. eigenvalues --  -10.27865 -10.26771 -10.25705 -10.25129 -10.24774
 Alpha  occ. eigenvalues --   -1.21333  -1.10388  -1.08231  -1.06913  -1.06633
 Alpha  occ. eigenvalues --   -0.86864  -0.85315  -0.77656  -0.75228  -0.74148
 Alpha  occ. eigenvalues --   -0.71618  -0.69961  -0.68382  -0.66046  -0.61696
 Alpha  occ. eigenvalues --   -0.59272  -0.58321  -0.57294  -0.54385  -0.53835
 Alpha  occ. eigenvalues --   -0.53007  -0.51267  -0.51026  -0.50504  -0.49123
 Alpha  occ. eigenvalues --   -0.48445  -0.48012  -0.47342  -0.46365  -0.46019
 Alpha  occ. eigenvalues --   -0.44319  -0.43557  -0.42872  -0.41482  -0.40722
 Alpha  occ. eigenvalues --   -0.39701  -0.37942  -0.36300  -0.35035  -0.34594
 Alpha  occ. eigenvalues --   -0.33068  -0.31051  -0.29597  -0.28667
 Alpha virt. eigenvalues --   -0.14937   0.00785   0.02852   0.04383   0.06267
 Alpha virt. eigenvalues --    0.06567   0.07593   0.08659   0.09640   0.09963
 Alpha virt. eigenvalues --    0.10777   0.11507   0.11725   0.12190   0.13247

 Mulliken charges:
               1
     1  C    0.093182
     2  C    0.028327
     3  C    0.295367
     4  C    0.012053
     5  C    0.098859
     6  H    0.273956
     7  H    0.235931
     8  H    0.199185
     9  H    0.237177
    10  H    0.211399
    11  O   -0.300082
    12  O   -0.457887
    13  O   -0.483491
    14  O   -0.476315
    15  C   -0.048217
    16  H    0.196474
    17  H    0.182035
    18  O   -0.464814
    19  C   -0.235129
    20  H    0.203279
    21  H    0.181847
    22  H    0.185112
    23  C   -0.227606
    24  H    0.158890
    25  H    0.191597
    26  H    0.172434
    27  C   -0.264829
    28  H    0.190672
    29  H    0.155842
    30  H    0.181323
    31  C   -0.225477
    32  H    0.182731
    33  H    0.154949
    34  H    0.161226
 Sum of Mulliken charges =   1.00000

 Dipole moment (field-independent basis, Debye):
    X=              3.3723    Y=             -0.0155    Z=             -3.2822  Tot=              4.7059
 Quadrupole moment (field-independent basis, Debye-Ang):
   XX=            -56.6986   YY=            -75.6534   ZZ=            -80.7481
   XY=              6.0386   XZ=            -11.2439   YZ=              4.5343

  Exact polarizability: 172.088   1.033 138.257  -6.180   3.112 128.643
 Approx polarizability: 186.199   0.032 155.811  -3.099   1.481 154.650

                      1                      2                      3
                      A                      A                      A
 Frequencies --     40.4924                56.9971                81.9817
 Red. masses --      3.1298                 3.8439                 3.8080
 Frc consts  --      0.0030                 0.0074                 0.0151
 IR Inten    --      1.1950                 3.0911                 1.3003

                      4                      5                      6
                      A                      A                      A
 Frequencies --     92.6686               108.2890               121.1952
 Red. masses --      3.2033                 2.9910                 3.1546
 Frc consts  --      0.0162                 0.0207                 0.0273
 IR Inten    --      3.7058                 2.4499                 4.4458

                      7                      8                      9
                      A                      A                      A
 Frequencies --    134.4209               149.2716               151.8916
 Red. masses --      2.0413                 3.3068                 2.5258
 Frc consts  --      0.0217                 0.0434                 0.0343
 IR Inten    --      4.5977                 0.3635                 5.2871

                     10                     11                     12
                      A                      A                      A
 Frequencies --    164.0432               190.6426               220.3287
 Red. masses --      1.9379                 1.2639                 1.7514
 Frc consts  --      0.0307                 0.0271                 0.0501
 IR Inten    --      8.4504                 0.9936                11.2650

                     13                     14                     15
                      A                      A                      A
 Frequencies --    227.6527               235.3269               267.9799
 Red. masses --      1.1671                 1.3226                 3.5722
 Frc consts  --      0.0356                 0.0432                 0.1511
 IR Inten    --      0.1933                 4.0361                 9.2627

                     16                     17                     18
                      A                      A                      A
 Frequencies --    279.4471               312.1835               316.4747
 Red. masses --      3.2470                 3.9171                 4.1976
 Frc consts  --      0.1494                 0.2249                 0.2477
 IR Inten    --      5.3009                 9.0725                 2.8527

                     19                     20                     21
                      A                      A                      A
 Frequencies --    332.5233               400.7960               412.3464
 Red. masses --      4.6513                 4.2320                 3.3263
 Frc consts  --      0.3030                 0.4005                 0.3332
 IR Inten    --     12.0700                 9.0096                12.6544

                     22                     23                     24
                      A                      A                      A
 Frequencies --    456.2012               494.8566               519.4262
 Red. masses --      2.8173                 4.5581                 4.1114
 Frc consts  --      0.3455                 0.6576                 0.6536
 IR Inten    --      3.8197                 6.4275                13.4073

                     25                     26                     27
                      A                      A                      A
 Frequencies --    553.0095               566.5422               666.1094
 Red. masses --      4.7488                 3.9003                 4.4692
 Frc consts  --      0.8556                 0.7376                 1.1684
 IR Inten    --     44.7184                17.8810                17.7716

                     28                     29                     30
                      A                      A                      A
 Frequencies --    682.8697               840.3855               890.0971
 Red. masses --      4.1431                 2.7976                 3.7324
 Frc consts  --      1.1383                 1.1641                 1.7422
 IR Inten    --     53.4705                 2.1148                13.5875

                     31                     32                     33
                      A                      A                      A
 Frequencies --    905.1077               925.9768               942.0992
 Red. masses --      2.7351                 2.9402                 4.1367
 Frc consts  --      1.3201                 1.4853                 2.1632
 IR Inten    --     60.3227                65.9926                29.1652

                     34                     35                     36
                      A                      A                      A
 Frequencies --    957.7495               993.3964              1010.7183
 Red. masses --      3.7770                 2.9444                 3.8862
 Frc consts  --      2.0413                 1.7120                 2.3390
 IR Inten    --     12.6385                22.5863                12.6693

                     37                     38                     39
                      A                      A                      A
 Frequencies --   1027.2898              1083.3415              1098.7214
 Red. masses --      3.2127                 2.5399                 2.2483
 Frc consts  --      1.9976                 1.7563                 1.5991
 IR Inten    --     17.9191                30.5563                43.9663

                     40                     41                     42
                      A                      A                      A
 Frequencies --   1113.0872              1123.8751              1133.8784
 Red. masses --      5.2296                 4.0481                 3.9898
 Frc consts  --      3.8175                 3.0126                 3.0223
 IR Inten    --    168.3242               181.0481               130.1445

                     43                     44                     45
                      A                      A                      A
 Frequencies --   1147.7155              1178.8761              1185.7513
 Red. masses --      1.9843                 3.6471                 1.2909
 Frc consts  --      1.5400                 2.9863                 1.0694
 IR Inten    --     53.9373               206.4170                 8.3113

                     46                     47                     48
                      A                      A                      A
 Frequencies --   1190.3650              1190.7768              1192.1055
 Red. masses --      1.2731                 1.2963                 1.2897
 Frc consts  --      1.0628                 1.0830                 1.0799
 IR Inten    --      9.4044                 2.9511                 7.8399

                     49                     50                     51
                      A                      A                      A
 Frequencies --   1213.2338              1224.8933              1229.2004
 Red. masses --      1.4143                 1.6137                 1.6187
 Frc consts  --      1.2265                 1.4265                 1.4410
 IR Inten    --     20.3951                22.6625                89.4314

                     52                     53                     54
                      A                      A                      A
 Frequencies --   1237.0515              1244.5554              1316.2331
 Red. masses --      1.6000                 1.8329                 1.3174
 Frc consts  --      1.4426                 1.6727                 1.3447
 IR Inten    --     28.7259                14.7804                 6.6335

                     55                     56                     57
                      A                      A                      A
 Frequencies --   1332.7948              1335.4151              1347.9782
 Red. masses --      1.1834                 1.2216                 1.4045
 Frc consts  --      1.2385                 1.2836                 1.5036
 IR Inten    --     15.5279                 5.7456                14.2389

                     58                     59                     60
                      A                      A                      A
 Frequencies --   1355.4644              1374.9624              1388.5354
 Red. masses --      1.2183                 1.3287                 1.4575
 Frc consts  --      1.3188                 1.4800                 1.6557
 IR Inten    --     38.1628                15.4238                66.7286

                     61                     62                     63
                      A                      A                      A
 Frequencies --   1421.9702              1427.7502              1445.6804
 Red. masses --      1.2310                 1.3052                 1.2939
 Frc consts  --      1.4665                 1.5676                 1.5933
 IR Inten    --     17.7343                10.5366                47.1096

                     64                     65                     66
                      A                      A                      A
 Frequencies --   1494.7270              1495.6684              1499.8887
 Red. masses --      1.0980                 1.1205                 1.1129
 Frc consts  --      1.4454                 1.4769                 1.4751
 IR Inten    --      4.5832                 5.1585                 6.2852

                     67                     68                     69
                      A                      A                      A
 Frequencies --   1508.3000              1510.8960              1512.7948
 Red. masses --      1.1340                 1.1022                 1.0551
 Frc consts  --      1.5200                 1.4824                 1.4226
 IR Inten    --      2.8689                 9.0195                14.5034

                     70                     71                     72
                      A                      A                      A
 Frequencies --   1517.4769              1518.9452              1523.5737
 Red. masses --      1.0598                 1.0626                 1.0533
 Frc consts  --      1.4379                 1.4445                 1.4406
 IR Inten    --      2.4915                 6.1313                14.0608

                     73                     74                     75
                      A                      A                      A
 Frequencies --   1527.3650              1531.6544              1533.4937
 Red. masses --      1.0567                 1.0743                 1.0633
 Frc consts  --      1.4524                 1.4848                 1.4732
 IR Inten    --     19.5414                16.9473                11.1946

                     76                     77                     78
                      A                      A                      A
 Frequencies --   1539.6950              1647.8176              3024.9571
 Red. masses --      1.0521                 5.5316                 1.0363
 Frc consts  --      1.4695                 8.8495                 5.5868
 IR Inten    --     17.5378               320.8913                54.8840

                     79                     80                     81
                      A                      A                      A
 Frequencies --   3032.0535              3033.6287              3039.5926
 Red. masses --      1.0673                 1.0353                 1.0383
 Frc consts  --      5.7813                 5.6134                 5.6519
 IR Inten    --     29.6604                35.7593                45.9717

                     82                     83                     84
                      A                      A                      A
 Frequencies --   3052.3720              3062.4800              3072.5729
 Red. masses --      1.0364                 1.0789                 1.0856
 Frc consts  --      5.6892                 5.9620                 6.0385
 IR Inten    --     49.5627                 2.7740                15.6907

                     85                     86                     87
                      A                      A                      A
 Frequencies --   3081.9048              3095.5993              3102.9780
 Red. masses --      1.1057                 1.1051                 1.0856
 Frc consts  --      6.1878                 6.2392                 6.1583
 IR Inten    --     65.3955                60.1480                 5.3423

                     88                     89                     90
                      A                      A                      A
 Frequencies --   3115.9548              3126.4422              3133.9550
 Red. masses --      1.0993                 1.1066                 1.0961
 Frc consts  --      6.2884                 6.3728                 6.3431
 IR Inten    --     29.2925                27.5929                 5.7075

                     91                     92                     93
                      A                      A                      A
 Frequencies --   3160.8498              3166.1568              3166.5169
 Red. masses --      1.0995                 1.1019                 1.0886
 Frc consts  --      6.4725                 6.5083                 6.4311
 IR Inten    --     26.9555                16.0219                 5.0711

                     94                     95                     96
                      A                      A                      A
 Frequencies --   3171.0148              3188.1124              3203.2373
 Red. masses --      1.1010                 1.1035                 1.0939
 Frc consts  --      6.5231                 6.6081                 6.6132
 IR Inten    --     19.4090                11.6713                 1.1365

 - Thermochemistry -
 -------------------
 Temperature   298.150 Kelvin.  Pressure   1.00000 Atm.
 Atom     1 has atomic number  6 and mass  12.00000

 Molecular mass:   219.12325 amu.
 Principal axes and moments of inertia in atomic units:
                           1         2         3
     Eigenvalues --  2325.893004374.376154800.18600
           X            0.99977   0.01477  -0.01524
           Y           -0.01456   0.99980   0.01365
           Z            0.01544  -0.01343   0.99979
 This molecule is an asymmetric top.
 Rotational symmetry number  1.
 Warning -- assumption of classical behavior for rotation
           may cause significant error
 Rotational temperatures (Kelvin)      0.03724     0.01980     0.01804
 Rotational constants (GHZ):           0.77593     0.41257     0.37597
 Zero-point vibrational energy     775513.2 (Joules/Mol)
                                  185.35209 (Kcal/Mol)
 Warning -- explicit consideration of  26 degrees of freedom as
           vibrations may cause significant error
 Vibrational temperatures:     58.26    82.01   117.95   133.33   155.80
          (Kelvin)            174.37   193.40   214.77   218.54   236.02
                              274.29   317.00   327.54   338.58   385.56
                              402.06   449.16   455.34   478.43   576.66
                              593.27   656.37   711.99   747.34   795.66
                              815.13   958.38   982.50  1209.13  1280.65
                             1302.25  1332.27  1355.47  1377.99  1429.28
                             1454.20  1478.04  1558.69  1580.81  1601.48
                             1617.01  1631.40  1651.31  1696.14  1706.03
                             1712.67  1713.26  1715.17  1745.57  1762.35
                             1768.55  1779.84  1790.64  1893.77  1917.59
                             1921.36  1939.44  1950.21  1978.26  1997.79
                             2045.90  2054.21  2080.01  2150.58  2151.93
                             2158.01  2170.11  2173.84  2176.57  2183.31
                             2185.42  2192.08  2197.54  2203.71  2206.36
                             2215.28  2370.84  4352.24  4362.45  4364.72
                             4373.30  4391.68  4406.23  4420.75  4434.17
                             4453.88  4464.49  4483.16  4498.25  4509.06
                             4547.76  4555.39  4555.91  4562.38  4586.98
                             4608.74

 Zero-point correction=                           0.295377 (Hartree/Particle)
 Thermal correction to Energy=                    0.312404
 Thermal correction to Enthalpy=                  0.313349
 Thermal correction to Gibbs Free Energy=         0.250877
 Sum of electronic and zero-point Energies=           -768.026725
 Sum of electronic and thermal Energies=              -768.009698
 Sum of electronic and thermal Enthalpies=            -768.008754
 Sum of electronic and thermal Free Energies=         -768.071226

                     E (Thermal)             CV                S
                      KCal/Mol        Cal/Mol-Kelvin    Cal/Mol-Kelvin
 Total                  196.037             61.389            131.483
 Electronic               0.000              0.000              0.000
 Translational            0.889              2.981             42.056
 Rotational               0.889              2.981             32.257
 Vibrational            194.259             55.427             57.170
 Vibration     1          0.594              1.981              5.235
 Vibration     2          0.596              1.975              4.559
 Vibration     3          0.600              1.961              3.843
 Vibration     4          0.602              1.954              3.603
 Vibration     5          0.606              1.943              3.299
 Vibration     6          0.609              1.932              3.081
 Vibration     7          0.613              1.919              2.882
 Vibration     8          0.618              1.903              2.681
 Vibration     9          0.619              1.901              2.648
 Vibration    10          0.623              1.887              2.503
 Vibration    11          0.634              1.853              2.222
 Vibration    12          0.647              1.810              1.956
 Vibration    13          0.651              1.799              1.897
 Vibration    14          0.655              1.787              1.838
 Vibration    15          0.673              1.732              1.609
 Vibration    16          0.680              1.712              1.537
 Vibration    17          0.701              1.650              1.351
 Vibration    18          0.703              1.642              1.328
 Vibration    19          0.714              1.611              1.248
 Vibration    20          0.767              1.468              0.960
 Vibration    21          0.776              1.443              0.918
 Vibration    22          0.814              1.347              0.777
 Vibration    23          0.850              1.261              0.671
 Vibration    24          0.874              1.207              0.611
 Vibration    25          0.908              1.133              0.538
 Vibration    26          0.922              1.104              0.511

 Optimization completed.
    -- Stationary point found.
 Normal termination of Gaussian 16 at Fri May 24 09:40:19 2019.
