 Gaussian 16, Revision A.03,
 Gaussian 16:  ES64L-G16RevA.03 25-Dec-2016

 -------------------------------------------------------------------
 #p b3lyp 6-31g* opt freq=noraman scrf=(pcm,solvent=tetrahydrofuran)
 -------------------------------------------------------------------

 -----
 title
 -----
 Symbolic Z-matrix:
 Charge =  1 Multiplicity = 1

 SCF Done:  E(RB3LYP) =  -768.329421075     A.U. after   14 cycles
 Optimization completed.
    -- Stationary point found.
 Normal termination of Gaussian 16 at Fri May 24 08:36:33 2019.

 --------------------------------------------------------------------
 #P Geom=AllCheck Guess=TCheck SCRF=Check GenChk RB3LYP/6-31G(d) Freq
 --------------------------------------------------------------------

 Structure from the checkpoint file:  "/scratch/Gau-47027.chk"
 -----
 title
 -----
 Charge =  1 Multiplicity = 1

                         Standard orientation:
 ---------------------------------------------------------------------
 Center     Atomic      Atomic             Coordinates (Angstroms)
 Number     Number       Type             X           Y           Z
 ---------------------------------------------------------------------
      1          6           0       -0.955147    0.558955   -0.276222
      2          6           0       -1.719981   -0.705256    0.196162
      3          6           0       -1.047315   -1.932558   -0.321632
      4          6           0        1.155808   -0.888851   -0.445441
      5          6           0        0.531955    0.413140    0.085189
      6          1           0       -1.623374   -2.833030   -0.540855
      7          1           0       -1.666972   -0.728096    1.298967
      8          1           0       -1.056232    0.646291   -1.365894
      9          1           0        1.500262   -0.730315   -1.467868
     10          1           0        0.625560    0.449046    1.177938
     11          8           0        0.169083   -2.011689   -0.628371
     12          8           0       -3.040017   -0.702730   -0.278416
     13          8           0       -1.453593    1.694425    0.377494
     14          8           0        1.282852    1.446727   -0.517575
     15          6           0        2.254401   -1.498992    0.452201
     16          1           0        2.684167   -2.377751   -0.048448
     17          1           0        1.795843   -1.822218    1.392039
     18          8           0        3.232720   -0.549149    0.782776
     19          6           0       -4.020914   -1.191945    0.648105
     20          1           0       -4.004261   -0.602392    1.572368
     21          1           0       -4.985248   -1.078525    0.152249
     22          1           0       -3.857458   -2.250408    0.885564
     23          6           0       -2.385775    2.475858   -0.378506
     24          1           0       -2.651400    3.324127    0.254871
     25          1           0       -3.284465    1.899029   -0.618161
     26          1           0       -1.925338    2.843308   -1.304071
     27          6           0        1.695903    2.489717    0.372975
     28          1           0        2.347348    2.088878    1.158184
     29          1           0        2.256757    3.199851   -0.237768
     30          1           0        0.831811    2.990237    0.819965
     31          6           0        4.184187   -0.287841   -0.251207
     32          1           0        4.967372    0.322718    0.201942
     33          1           0        4.622861   -1.222419   -0.624820
     34          1           0        3.735677    0.267637   -1.083207
 ---------------------------------------------------------------------

 SCF Done:  E(RB3LYP) =  -768.329421075     A.U. after    1 cycles

 The electronic state is 1-A.
 Alpha  occ. eigenvalues --  -19.33160 -19.21293 -19.19036 -19.18855 -19.18824
 Alpha  occ. eigenvalues --  -10.39594 -10.31788 -10.31658 -10.29352 -10.29203
 Alpha  occ. eigenvalues --  -10.27983 -10.26224 -10.24735 -10.24631 -10.24368
 Alpha  occ. eigenvalues --   -1.21722  -1.09898  -1.07945  -1.06900  -1.05950
 Alpha  occ. eigenvalues --   -0.86986  -0.85866  -0.77081  -0.74963  -0.73561
 Alpha  occ. eigenvalues --   -0.71292  -0.68664  -0.67248  -0.65423  -0.62979
 Alpha  occ. eigenvalues --   -0.60225  -0.59019  -0.55619  -0.54972  -0.53496
 Alpha  occ. eigenvalues --   -0.51903  -0.51619  -0.50654  -0.50148  -0.49053
 Alpha  occ. eigenvalues --   -0.48551  -0.47721  -0.46169  -0.45815  -0.45244
 Alpha  occ. eigenvalues --   -0.44025  -0.43481  -0.41627  -0.41134  -0.40110
 Alpha  occ. eigenvalues --   -0.39796  -0.37420  -0.35663  -0.35455  -0.34661
 Alpha  occ. eigenvalues --   -0.32384  -0.30351  -0.29665  -0.27861
 Alpha virt. eigenvalues --   -0.15234  -0.00507   0.04352   0.05705   0.06713
 Alpha virt. eigenvalues --    0.07245   0.08107   0.08789   0.09975   0.11205
 Alpha virt. eigenvalues --    0.11317   0.11567   0.11792   0.12506   0.13489

 Mulliken charges:
               1
     1  C    0.125960
     2  C    0.034077
     3  C    0.295459
     4  C    0.053735
     5  C    0.104750
     6  H    0.276977
     7  H    0.234275
     8  H    0.181408
     9  H    0.240617
    10  H    0.182413
    11  O   -0.313216
    12  O   -0.470240
    13  O   -0.486211
    14  O   -0.489303
    15  C   -0.043783
    16  H    0.178208
    17  H    0.184310
    18  O   -0.459383
    19  C   -0.233921
    20  H    0.180877
    21  H    0.197553
    22  H    0.170705
    23  C   -0.225032
    24  H    0.180224
    25  H    0.169853
    26  H    0.164975
    27  C   -0.225169
    28  H    0.165723
    29  H    0.176405
    30  H    0.169039
    31  C   -0.225937
    32  H    0.181639
    33  H    0.159488
    34  H    0.163526
 Sum of Mulliken charges =   1.00000

 Dipole moment (field-independent basis, Debye):
    X=             -2.9839    Y=             -5.2846    Z=             -0.3407  Tot=              6.0784
 Quadrupole moment (field-independent basis, Debye-Ang):
   XX=            -57.2798   YY=            -66.1131   ZZ=            -85.6962
   XY=              5.5295   XZ=             -6.2946   YZ=             -0.3135

  Exact polarizability: 181.705   3.859 152.387  -5.177   1.702 111.158
 Approx polarizability: 187.427   2.160 169.727  -4.793   4.477 143.345

                      1                      2                      3
                      A                      A                      A
 Frequencies --     35.2667                53.3702                71.1069
 Red. masses --      3.9880                 3.4874                 3.0790
 Frc consts  --      0.0029                 0.0059                 0.0092
 IR Inten    --      1.6489                 1.2928                 2.2570

                      4                      5                      6
                      A                      A                      A
 Frequencies --     85.2002               101.6764               108.1364
 Red. masses --      2.3843                 2.8552                 2.5188
 Frc consts  --      0.0102                 0.0174                 0.0174
 IR Inten    --      4.5476                 5.5778                 5.3729

                      7                      8                      9
                      A                      A                      A
 Frequencies --    116.6694               135.8197               153.5335
 Red. masses --      2.3780                 2.0109                 1.4376
 Frc consts  --      0.0191                 0.0219                 0.0200
 IR Inten    --      2.3896                 1.4925                 2.4546

                     10                     11                     12
                      A                      A                      A
 Frequencies --    164.0136               177.8394               190.0753
 Red. masses --      1.3782                 1.9585                 1.2940
 Frc consts  --      0.0218                 0.0365                 0.0275
 IR Inten    --      2.4030                 0.2596                 4.2682

                     13                     14                     15
                      A                      A                      A
 Frequencies --    217.7319               222.7931               263.6168
 Red. masses --      2.5202                 2.0793                 3.3930
 Frc consts  --      0.0704                 0.0608                 0.1389
 IR Inten    --      8.9878                 7.6279                 3.8541

                     16                     17                     18
                      A                      A                      A
 Frequencies --    274.9146               297.6771               340.4587
 Red. masses --      4.4702                 4.1903                 4.8239
 Frc consts  --      0.1991                 0.2188                 0.3294
 IR Inten    --     13.9032                11.4461                 1.4124

                     19                     20                     21
                      A                      A                      A
 Frequencies --    355.5560               394.9631               419.7509
 Red. masses --      3.7963                 3.7240                 3.9172
 Frc consts  --      0.2828                 0.3423                 0.4066
 IR Inten    --      1.6419                10.8380                 1.4796

                     22                     23                     24
                      A                      A                      A
 Frequencies --    434.9286               471.3640               485.3635
 Red. masses --      3.6308                 4.2399                 3.5334
 Frc consts  --      0.4047                 0.5550                 0.4904
 IR Inten    --     24.3349                 9.5008                26.8234

                     25                     26                     27
                      A                      A                      A
 Frequencies --    524.6686               548.8388               598.7315
 Red. masses --      3.5105                 2.9762                 3.0485
 Frc consts  --      0.5694                 0.5282                 0.6439
 IR Inten    --     43.5538                 0.9254                11.9847

                     28                     29                     30
                      A                      A                      A
 Frequencies --    709.1619               806.1945               854.9128
 Red. masses --      4.5265                 6.2541                 2.0119
 Frc consts  --      1.3412                 2.3949                 0.8664
 IR Inten    --     53.0238                58.1774                22.3308

                     31                     32                     33
                      A                      A                      A
 Frequencies --    915.5085               947.9577               954.8677
 Red. masses --      2.2858                 5.2125                 4.0158
 Frc consts  --      1.1288                 2.7598                 2.1573
 IR Inten    --     15.3195                15.3304                31.0251

                     34                     35                     36
                      A                      A                      A
 Frequencies --    992.3719              1024.9790              1064.4356
 Red. masses --      3.5462                 4.9504                 3.9664
 Frc consts  --      2.0576                 3.0642                 2.6478
 IR Inten    --     17.0905                68.0737                19.8384

                     37                     38                     39
                      A                      A                      A
 Frequencies --   1071.1792              1076.3562              1116.3321
 Red. masses --      2.5698                 3.5673                 2.5936
 Frc consts  --      1.7373                 2.4350                 1.9043
 IR Inten    --     45.2566               111.9742                19.2408

                     40                     41                     42
                      A                      A                      A
 Frequencies --   1136.6678              1142.6000              1154.3920
 Red. masses --      3.8795                 2.5797                 3.0619
 Frc consts  --      2.9532                 1.9843                 2.4041
 IR Inten    --    240.7844               115.5567                94.7739

                     43                     44                     45
                      A                      A                      A
 Frequencies --   1158.5228              1174.7999              1182.7664
 Red. masses --      3.0802                 2.6090                 1.2655
 Frc consts  --      2.4358                 2.1215                 1.0431
 IR Inten    --     97.6273               156.2955                 1.1838

                     46                     47                     48
                      A                      A                      A
 Frequencies --   1183.5201              1184.3436              1186.2764
 Red. masses --      1.2825                 1.2939                 1.5668
 Frc consts  --      1.0584                 1.0693                 1.2990
 IR Inten    --      5.3045                 8.9417                80.1835

                     49                     50                     51
                      A                      A                      A
 Frequencies --   1210.4675              1223.2522              1226.8798
 Red. masses --      1.4739                 1.6821                 1.6832
 Frc consts  --      1.2724                 1.4829                 1.4927
 IR Inten    --     22.9921                98.1703                12.4973

                     52                     53                     54
                      A                      A                      A
 Frequencies --   1239.5892              1250.5528              1284.6844
 Red. masses --      1.6801                 1.6311                 1.4007
 Frc consts  --      1.5210                 1.5029                 1.3621
 IR Inten    --     21.0735                 7.7033                41.3617

                     55                     56                     57
                      A                      A                      A
 Frequencies --   1315.5223              1324.6583              1352.5702
 Red. masses --      1.3395                 1.1815                 1.1736
 Frc consts  --      1.3658                 1.2215                 1.2650
 IR Inten    --      4.2093                33.2490                 2.8461

                     58                     59                     60
                      A                      A                      A
 Frequencies --   1362.9432              1393.5752              1412.3407
 Red. masses --      1.2578                 1.3135                 1.2963
 Frc consts  --      1.3766                 1.5030                 1.5234
 IR Inten    --      7.2694                 4.4179                 1.4584

                     61                     62                     63
                      A                      A                      A
 Frequencies --   1428.9011              1441.4457              1445.9031
 Red. masses --      1.3257                 1.2706                 1.2103
 Frc consts  --      1.5948                 1.5554                 1.4908
 IR Inten    --      9.8932                41.0572                50.1119

                     64                     65                     66
                      A                      A                      A
 Frequencies --   1493.9180              1495.9049              1496.7807
 Red. masses --      1.1552                 1.1232                 1.1233
 Frc consts  --      1.5190                 1.4809                 1.4827
 IR Inten    --      4.2123                 2.9822                 2.5211

                     67                     68                     69
                      A                      A                      A
 Frequencies --   1502.2352              1510.4704              1510.5945
 Red. masses --      1.1618                 1.0513                 1.0623
 Frc consts  --      1.5447                 1.4132                 1.4282
 IR Inten    --      1.7260                 6.7759                 4.7379

                     70                     71                     72
                      A                      A                      A
 Frequencies --   1515.3211              1516.2295              1523.4546
 Red. masses --      1.0571                 1.0601                 1.0906
 Frc consts  --      1.4301                 1.4359                 1.4913
 IR Inten    --      9.3460                 4.2274                 0.9735

                     73                     74                     75
                      A                      A                      A
 Frequencies --   1524.3288              1529.5874              1530.5979
 Red. masses --      1.0677                 1.0551                 1.0544
 Frc consts  --      1.4617                 1.4544                 1.4553
 IR Inten    --     21.9931                13.0509                12.3006

                     76                     77                     78
                      A                      A                      A
 Frequencies --   1534.0298              1636.9246              2981.6447
 Red. masses --      1.0495                 6.2896                 1.0802
 Frc consts  --      1.4551                 9.9296                 5.6579
 IR Inten    --      7.8886               298.2120                14.7162

                     79                     80                     81
                      A                      A                      A
 Frequencies --   3033.8307              3040.1367              3044.3639
 Red. masses --      1.0354                 1.0341                 1.0640
 Frc consts  --      5.6147                 5.6311                 5.8103
 IR Inten    --     48.6848                41.7018                70.6698

                     82                     83                     84
                      A                      A                      A
 Frequencies --   3045.3490              3050.0867              3052.3717
 Red. masses --      1.0368                 1.0833                 1.0318
 Frc consts  --      5.6652                 5.9380                 5.6642
 IR Inten    --     41.5051                 2.1991                48.2088

                     85                     86                     87
                      A                      A                      A
 Frequencies --   3064.1611              3100.3236              3107.2155
 Red. masses --      1.0853                 1.1058                 1.1076
 Frc consts  --      6.0036                 6.2624                 6.3007
 IR Inten    --     29.1980                48.2558                38.4665

                     88                     89                     90
                      A                      A                      A
 Frequencies --   3119.6970              3126.8733              3128.3164
 Red. masses --      1.1035                 1.0964                 1.1057
 Frc consts  --      6.3276                 6.3159                 6.3757
 IR Inten    --     38.6195                20.2239                31.4833

                     91                     92                     93
                      A                      A                      A
 Frequencies --   3160.0166              3161.7707              3163.6938
 Red. masses --      1.0953                 1.0944                 1.1050
 Frc consts  --      6.4438                 6.4459                 6.5164
 IR Inten    --     13.1797                14.8753                24.1089

                     94                     95                     96
                      A                      A                      A
 Frequencies --   3165.5793              3180.5495              3197.0104
 Red. masses --      1.1042                 1.1017                 1.0939
 Frc consts  --      6.5191                 6.5660                 6.5875
 IR Inten    --     24.4347                17.4655                 1.1305

 - Thermochemistry -
 -------------------
 Temperature   298.150 Kelvin.  Pressure   1.00000 Atm.
 Atom     1 has atomic number  6 and mass  12.00000

 Molecular mass:   219.12325 amu.
 Principal axes and moments of inertia in atomic units:
                           1         2         3
     Eigenvalues --  1959.512204468.062186005.36128
           X            0.99997   0.00297  -0.00755
           Y           -0.00303   0.99996  -0.00826
           Z            0.00752   0.00829   0.99994
 This molecule is an asymmetric top.
 Rotational symmetry number  1.
 Warning -- assumption of classical behavior for rotation
           may cause significant error
 Rotational temperatures (Kelvin)      0.04420     0.01939     0.01442
 Rotational constants (GHZ):           0.92102     0.40392     0.30052
 Zero-point vibrational energy     774216.3 (Joules/Mol)
                                  185.04215 (Kcal/Mol)
 Warning -- explicit consideration of  27 degrees of freedom as
           vibrations may cause significant error
 Vibrational temperatures:     50.74    76.79   102.31   122.58   146.29
          (Kelvin)            155.58   167.86   195.41   220.90   235.98
                              255.87   273.48   313.27   320.55   379.29
                              395.54   428.29   489.84   511.57   568.26
                              603.93   625.77   678.19   698.33   754.88
                              789.66   861.44  1020.33  1159.93  1230.03
                             1317.21  1363.90  1373.84  1427.80  1474.72
                             1531.49  1541.19  1548.64  1606.15  1635.41
                             1643.95  1660.91  1666.86  1690.27  1701.74
                             1702.82  1704.01  1706.79  1741.59  1759.99
                             1765.21  1783.49  1799.27  1848.37  1892.74
                             1905.89  1946.05  1960.97  2005.04  2032.04
                             2055.87  2073.92  2080.33  2149.41  2152.27
                             2153.53  2161.38  2173.23  2173.41  2180.21
                             2181.52  2191.91  2193.17  2200.74  2202.19
                             2207.13  2355.17  4289.92  4365.01  4374.08
                             4380.16  4381.58  4388.39  4391.68  4408.64
                             4460.67  4470.59  4488.55  4498.87  4500.95
                             4546.56  4549.08  4551.85  4554.56  4576.10
                             4599.78

 Zero-point correction=                           0.294883 (Hartree/Particle)
 Thermal correction to Energy=                    0.312228
 Thermal correction to Enthalpy=                  0.313173
 Thermal correction to Gibbs Free Energy=         0.249503
 Sum of electronic and zero-point Energies=           -768.034538
 Sum of electronic and thermal Energies=              -768.017193
 Sum of electronic and thermal Enthalpies=            -768.016248
 Sum of electronic and thermal Free Energies=         -768.079918

                     E (Thermal)             CV                S
                      KCal/Mol        Cal/Mol-Kelvin    Cal/Mol-Kelvin
 Total                  195.926             61.692            134.004
 Electronic               0.000              0.000              0.000
 Translational            0.889              2.981             42.056
 Rotational               0.889              2.981             32.331
 Vibrational            194.149             55.730             59.618
 Vibration     1          0.594              1.982              5.509
 Vibration     2          0.596              1.976              4.688
 Vibration     3          0.598              1.968              4.122
 Vibration     4          0.601              1.959              3.767
 Vibration     5          0.604              1.948              3.422
 Vibration     6          0.606              1.943              3.302
 Vibration     7          0.608              1.936              3.155
 Vibration     8          0.614              1.918              2.862
 Vibration     9          0.619              1.899              2.628
 Vibration    10          0.623              1.887              2.503
 Vibration    11          0.628              1.870              2.351
 Vibration    12          0.633              1.854              2.227
 Vibration    13          0.646              1.814              1.978
 Vibration    14          0.648              1.806              1.936
 Vibration    15          0.670              1.740              1.638
 Vibration    16          0.677              1.720              1.565
 Vibration    17          0.691              1.678              1.430
 Vibration    18          0.720              1.595              1.210
 Vibration    19          0.731              1.564              1.141
 Vibration    20          0.762              1.481              0.981
 Vibration    21          0.782              1.427              0.893
 Vibration    22          0.796              1.394              0.843
 Vibration    23          0.828              1.314              0.734
 Vibration    24          0.841              1.283              0.696
 Vibration    25          0.880              1.195              0.599
 Vibration    26          0.904              1.142              0.547
 Vibration    27          0.957              1.034              0.452

 Optimization completed.
    -- Stationary point found.
 Normal termination of Gaussian 16 at Fri May 24 09:21:25 2019.
