 Gaussian 16, Revision A.03,
 Gaussian 16:  ES64L-G16RevA.03 25-Dec-2016

 -------------------------------------------------------------------
 #p b3lyp 6-31g* opt freq=noraman scrf=(pcm,solvent=tetrahydrofuran)
 -------------------------------------------------------------------

 -----
 title
 -----
 Symbolic Z-matrix:
 Charge =  1 Multiplicity = 1

 SCF Done:  E(RB3LYP) =  -768.326575830     A.U. after   14 cycles
 Optimization completed.
    -- Stationary point found.
 Normal termination of Gaussian 16 at Fri May 24 08:37:58 2019.

 --------------------------------------------------------------------
 #P Geom=AllCheck Guess=TCheck SCRF=Check GenChk RB3LYP/6-31G(d) Freq
 --------------------------------------------------------------------

 Structure from the checkpoint file:  "/scratch/Gau-33873.chk"
 -----
 title
 -----
 Charge =  1 Multiplicity = 1

                         Standard orientation:
 ---------------------------------------------------------------------
 Center     Atomic      Atomic             Coordinates (Angstroms)
 Number     Number       Type             X           Y           Z
 ---------------------------------------------------------------------
      1          6           0       -1.492565   -0.482402   -0.043302
      2          6           0       -1.503656    1.054974    0.027294
      3          6           0       -0.570611    1.470320   -1.092273
      4          6           0        1.048048   -0.052600   -0.175502
      5          6           0       -0.070224   -1.057606    0.167173
      6          1           0       -0.800339    2.214162   -1.856064
      7          1           0       -2.506124    1.451126   -0.160279
      8          1           0       -2.168451   -0.900918    0.710297
      9          1           0        1.266247    0.542585    0.710651
     10          1           0        0.008296   -1.929381   -0.498016
     11          8           0        0.580486    0.979364   -1.178760
     12          8           0       -0.961741    1.521364    1.241723
     13          8           0       -1.883401   -0.807756   -1.373393
     14          8           0        0.195465   -1.412303    1.505792
     15          6           0        2.289244   -0.678394   -0.793608
     16          1           0        2.032833   -1.097491   -1.772250
     17          1           0        2.588199   -1.507288   -0.134383
     18          8           0        3.331052    0.244230   -0.995231
     19          6           0       -1.474967    2.785922    1.697319
     20          1           0       -0.997925    2.966249    2.660966
     21          1           0       -1.223022    3.599060    1.007971
     22          1           0       -2.561773    2.732677    1.826368
     23          6           0       -3.284246   -1.042564   -1.554012
     24          1           0       -3.885383   -0.157326   -1.312068
     25          1           0       -3.419164   -1.290388   -2.607802
     26          1           0       -3.614837   -1.884001   -0.933222
     27          6           0       -0.217683   -2.734144    1.856692
     28          1           0       -1.305462   -2.857316    1.777365
     29          1           0        0.276199   -3.481505    1.222161
     30          1           0        0.082312   -2.880998    2.895415
     31          6           0        4.125419    0.496871    0.160706
     32          1           0        3.549180    0.969131    0.968502
     33          1           0        4.574564   -0.430603    0.541382
     34          1           0        4.917198    1.180776   -0.150966
 ---------------------------------------------------------------------

 SCF Done:  E(RB3LYP) =  -768.326575830     A.U. after    1 cycles

 The electronic state is 1-A.
 Alpha  occ. eigenvalues --  -19.32610 -19.21609 -19.20119 -19.19287 -19.18107
 Alpha  occ. eigenvalues --  -10.39352 -10.31332 -10.31203 -10.29450 -10.29375
 Alpha  occ. eigenvalues --  -10.27423 -10.26303 -10.25736 -10.25205 -10.24596
 Alpha  occ. eigenvalues --   -1.21457  -1.09691  -1.08139  -1.07249  -1.06324
 Alpha  occ. eigenvalues --   -0.86659  -0.85197  -0.76795  -0.74587  -0.74054
 Alpha  occ. eigenvalues --   -0.71232  -0.69087  -0.68265  -0.65678  -0.61262
 Alpha  occ. eigenvalues --   -0.60850  -0.58228  -0.56848  -0.54315  -0.53364
 Alpha  occ. eigenvalues --   -0.51754  -0.50882  -0.50497  -0.50106  -0.49789
 Alpha  occ. eigenvalues --   -0.48708  -0.47867  -0.47046  -0.45945  -0.45549
 Alpha  occ. eigenvalues --   -0.43503  -0.43142  -0.42833  -0.41068  -0.40565
 Alpha  occ. eigenvalues --   -0.39939  -0.37369  -0.36649  -0.35747  -0.34571
 Alpha  occ. eigenvalues --   -0.32189  -0.30971  -0.29459  -0.28590
 Alpha virt. eigenvalues --   -0.15243   0.01027   0.04256   0.05133   0.06427
 Alpha virt. eigenvalues --    0.07394   0.08673   0.08806   0.09515   0.10109
 Alpha virt. eigenvalues --    0.10573   0.11709   0.12207   0.12294   0.12979

 Mulliken charges:
               1
     1  C    0.063079
     2  C    0.050413
     3  C    0.306189
     4  C    0.047763
     5  C    0.122267
     6  H    0.276136
     7  H    0.208331
     8  H    0.199594
     9  H    0.246198
    10  H    0.185133
    11  O   -0.292694
    12  O   -0.467819
    13  O   -0.490718
    14  O   -0.484323
    15  C   -0.054239
    16  H    0.191144
    17  H    0.182435
    18  O   -0.469088
    19  C   -0.229586
    20  H    0.198470
    21  H    0.174370
    22  H    0.179067
    23  C   -0.224433
    24  H    0.163782
    25  H    0.189799
    26  H    0.172271
    27  C   -0.225474
    28  H    0.160944
    29  H    0.165272
    30  H    0.186635
    31  C   -0.224586
    32  H    0.153115
    33  H    0.159740
    34  H    0.180812
 Sum of Mulliken charges =   1.00000

 Dipole moment (field-independent basis, Debye):
    X=             -4.7920    Y=              2.4030    Z=             -0.3451  Tot=              5.3719
 Quadrupole moment (field-independent basis, Debye-Ang):
   XX=            -62.9358   YY=            -62.4186   ZZ=            -82.4574
   XY=             -5.5433   XZ=              6.9005   YZ=             -1.9476

  Exact polarizability: 154.229  -2.617 143.669   5.593  -0.268 133.831
 Approx polarizability: 164.952  -2.533 157.098   4.025  -1.177 161.572

                      1                      2                      3
                      A                      A                      A
 Frequencies --     37.3881                59.2604                70.8971
 Red. masses --      4.2050                 3.3477                 3.5643
 Frc consts  --      0.0035                 0.0069                 0.0106
 IR Inten    --      0.3095                 0.2411                11.1734

                      4                      5                      6
                      A                      A                      A
 Frequencies --     82.2589                91.5612                98.9963
 Red. masses --      3.0627                 2.5455                 2.2352
 Frc consts  --      0.0122                 0.0126                 0.0129
 IR Inten    --      5.4623                 0.5717                 1.2481

                      7                      8                      9
                      A                      A                      A
 Frequencies --    117.0607               125.0020               147.6157
 Red. masses --      2.3652                 2.9870                 2.0773
 Frc consts  --      0.0191                 0.0275                 0.0267
 IR Inten    --      7.6206                11.2544                 5.1178

                     10                     11                     12
                      A                      A                      A
 Frequencies --    162.5631               179.4279               183.9369
 Red. masses --      1.6602                 1.2597                 1.2194
 Frc consts  --      0.0258                 0.0239                 0.0243
 IR Inten    --      1.6610                 0.5554                 2.3671

                     13                     14                     15
                      A                      A                      A
 Frequencies --    208.5002               215.5223               257.4130
 Red. masses --      2.0963                 1.9043                 2.8519
 Frc consts  --      0.0537                 0.0521                 0.1113
 IR Inten    --      1.0466                12.1908                17.3985

                     16                     17                     18
                      A                      A                      A
 Frequencies --    276.1454               295.1644               317.5576
 Red. masses --      3.7615                 4.1810                 3.2730
 Frc consts  --      0.1690                 0.2146                 0.1945
 IR Inten    --     21.6423                 1.7490                 3.3755

                     19                     20                     21
                      A                      A                      A
 Frequencies --    331.8965               376.6132               406.9391
 Red. masses --      3.6445                 4.1708                 3.9524
 Frc consts  --      0.2365                 0.3485                 0.3856
 IR Inten    --     15.8481                 7.7868                 0.2528

                     22                     23                     24
                      A                      A                      A
 Frequencies --    434.2201               467.8454               494.5942
 Red. masses --      2.7550                 3.4204                 5.1885
 Frc consts  --      0.3060                 0.4411                 0.7478
 IR Inten    --      6.2082                11.3611                18.2050

                     25                     26                     27
                      A                      A                      A
 Frequencies --    530.6390               584.8217               623.6499
 Red. masses --      3.3666                 4.4940                 3.7334
 Frc consts  --      0.5585                 0.9056                 0.8555
 IR Inten    --     13.8133                50.3503                 9.5665

                     28                     29                     30
                      A                      A                      A
 Frequencies --    718.2612               866.1963               883.8170
 Red. masses --      4.0143                 2.9638                 3.8856
 Frc consts  --      1.2202                 1.3102                 1.7883
 IR Inten    --     38.7301                31.6416                 6.9093

                     31                     32                     33
                      A                      A                      A
 Frequencies --    912.8751               938.3940               949.8310
 Red. masses --      3.1818                 3.7217                 5.1612
 Frc consts  --      1.5622                 1.9309                 2.7434
 IR Inten    --     55.6462                48.7316                 7.5978

                     34                     35                     36
                      A                      A                      A
 Frequencies --    968.1558              1010.4644              1024.9879
 Red. masses --      3.1837                 2.6393                 3.1718
 Frc consts  --      1.7582                 1.5877                 1.9633
 IR Inten    --     24.3129                 4.1908                56.4887

                     37                     38                     39
                      A                      A                      A
 Frequencies --   1043.0723              1074.4133              1114.7448
 Red. masses --      3.1896                 2.2991                 4.2225
 Frc consts  --      2.0446                 1.5637                 3.0915
 IR Inten    --      9.6914                34.2731                99.0030

                     40                     41                     42
                      A                      A                      A
 Frequencies --   1116.6127              1123.8880              1144.6838
 Red. masses --      2.7679                 4.2488                 2.9187
 Frc consts  --      2.0333                 3.1620                 2.2533
 IR Inten    --     64.9715               268.8529               125.5926

                     43                     44                     45
                      A                      A                      A
 Frequencies --   1149.7312              1158.2796              1187.1353
 Red. masses --      4.0929                 2.9642                 1.2821
 Frc consts  --      3.1876                 2.3431                 1.0645
 IR Inten    --    113.4109               116.7932                 2.7623

                     46                     47                     48
                      A                      A                      A
 Frequencies --   1187.4523              1187.6688              1190.8315
 Red. masses --      1.2780                 1.2841                 1.2576
 Frc consts  --      1.0617                 1.0672                 1.0508
 IR Inten    --      9.7376                 2.1234                 4.1905

                     49                     50                     51
                      A                      A                      A
 Frequencies --   1218.0632              1222.8969              1227.6060
 Red. masses --      1.4902                 1.5173                 1.6356
 Frc consts  --      1.3027                 1.3369                 1.4523
 IR Inten    --     22.8971                40.0536                48.7387

                     52                     53                     54
                      A                      A                      A
 Frequencies --   1235.2142              1254.7507              1290.0628
 Red. masses --      1.6694                 1.6388                 1.3835
 Frc consts  --      1.5007                 1.5202                 1.3566
 IR Inten    --     36.4918                 5.4849                17.3256

                     55                     56                     57
                      A                      A                      A
 Frequencies --   1324.3050              1324.6174              1349.0135
 Red. masses --      1.2462                 1.2548                 1.1412
 Frc consts  --      1.2877                 1.2972                 1.2236
 IR Inten    --     10.0073                10.4792                36.9150

                     58                     59                     60
                      A                      A                      A
 Frequencies --   1364.0963              1371.4753              1402.0196
 Red. masses --      1.2378                 1.2761                 1.4602
 Frc consts  --      1.3571                 1.4142                 1.6911
 IR Inten    --     12.1349                 4.3805                 2.5228

                     61                     62                     63
                      A                      A                      A
 Frequencies --   1417.9614              1427.3368              1436.7129
 Red. masses --      1.3361                 1.3693                 1.3480
 Frc consts  --      1.5827                 1.6436                 1.6394
 IR Inten    --     22.4661                21.5135                43.5014

                     64                     65                     66
                      A                      A                      A
 Frequencies --   1493.5023              1496.5628              1497.8195
 Red. masses --      1.0931                 1.1238                 1.1242
 Frc consts  --      1.4366                 1.4830                 1.4860
 IR Inten    --      0.8126                 2.3607                 1.0925

                     67                     68                     69
                      A                      A                      A
 Frequencies --   1499.7066              1508.4057              1512.7385
 Red. masses --      1.1264                 1.0905                 1.0547
 Frc consts  --      1.4927                 1.4619                 1.4220
 IR Inten    --      2.7091                11.8372                11.4811

                     70                     71                     72
                      A                      A                      A
 Frequencies --   1513.3886              1514.2725              1520.3847
 Red. masses --      1.0605                 1.0530                 1.0676
 Frc consts  --      1.4311                 1.4227                 1.4540
 IR Inten    --     12.9132                 5.4939                 3.3656

                     73                     74                     75
                      A                      A                      A
 Frequencies --   1527.7469              1527.9894              1528.9522
 Red. masses --      1.0793                 1.0624                 1.0599
 Frc consts  --      1.4842                 1.4615                 1.4599
 IR Inten    --     12.5757                19.3656                 8.1449

                     76                     77                     78
                      A                      A                      A
 Frequencies --   1535.6716              1649.3161              3019.1558
 Red. masses --      1.0607                 6.7859                 1.0380
 Frc consts  --      1.4738                10.8760                 5.5748
 IR Inten    --     21.0427               170.4371                52.6553

                     79                     80                     81
                      A                      A                      A
 Frequencies --   3031.0590              3032.0925              3036.4352
 Red. masses --      1.0584                 1.0400                 1.0831
 Frc consts  --      5.7290                 5.6336                 5.8834
 IR Inten    --     59.8020                17.0776                26.7923

                     82                     83                     84
                      A                      A                      A
 Frequencies --   3042.6657              3050.5671              3075.5664
 Red. masses --      1.0332                 1.0327                 1.1061
 Frc consts  --      5.6358                 5.6623                 6.1647
 IR Inten    --     52.6237                57.4964                70.3252

                     85                     86                     87
                      A                      A                      A
 Frequencies --   3090.0437              3092.8004              3106.3188
 Red. masses --      1.0910                 1.1028                 1.1017
 Frc consts  --      6.1379                 6.2152                 6.2633
 IR Inten    --     27.8805                44.4664                31.8065

                     88                     89                     90
                      A                      A                      A
 Frequencies --   3107.6310              3113.3708              3121.2041
 Red. masses --      1.0917                 1.0980                 1.1085
 Frc consts  --      6.2118                 6.2704                 6.3625
 IR Inten    --     26.1640                16.0475                31.4745

                     91                     92                     93
                      A                      A                      A
 Frequencies --   3157.6871              3167.0559              3170.3766
 Red. masses --      1.0994                 1.1005                 1.0863
 Frc consts  --      6.4588                 6.5036                 6.4330
 IR Inten    --     29.4056                22.6041                 1.0581

                     94                     95                     96
                      A                      A                      A
 Frequencies --   3170.7688              3181.1780              3200.0836
 Red. masses --      1.1020                 1.1031                 1.0950
 Frc consts  --      6.5278                 6.5773                 6.6069
 IR Inten    --     20.3134                12.1753                 0.2397

 - Thermochemistry -
 -------------------
 Temperature   298.150 Kelvin.  Pressure   1.00000 Atm.
 Atom     1 has atomic number  6 and mass  12.00000

 Molecular mass:   219.12325 amu.
 Principal axes and moments of inertia in atomic units:
                           1         2         3
     Eigenvalues --  2632.330194224.100704713.68116
           X            0.99986  -0.00402   0.01604
           Y            0.00366   0.99974   0.02255
           Z           -0.01612  -0.02249   0.99962
 This molecule is an asymmetric top.
 Rotational symmetry number  1.
 Warning -- assumption of classical behavior for rotation
           may cause significant error
 Rotational temperatures (Kelvin)      0.03290     0.02050     0.01838
 Rotational constants (GHZ):           0.68561     0.42725     0.38287
 Zero-point vibrational energy     773311.8 (Joules/Mol)
                                  184.82595 (Kcal/Mol)
 Warning -- explicit consideration of  26 degrees of freedom as
           vibrations may cause significant error
 Vibrational temperatures:     53.79    85.26   102.01   118.35   131.74
          (Kelvin)            142.43   168.42   179.85   212.39   233.89
                              258.16   264.64   299.99   310.09   370.36
                              397.31   424.68   456.89   477.53   541.86
                              585.49   624.75   673.13   711.61   763.47
                              841.43   897.29  1033.42  1246.26  1271.62
                             1313.42  1350.14  1366.60  1392.96  1453.83
                             1474.73  1500.75  1545.84  1603.87  1606.56
                             1617.02  1646.94  1654.21  1666.51  1708.02
                             1708.48  1708.79  1713.34  1752.52  1759.48
                             1766.25  1777.20  1805.31  1856.11  1905.38
                             1905.83  1940.93  1962.63  1973.25  2017.19
                             2040.13  2053.62  2067.11  2148.82  2153.22
                             2155.03  2157.74  2170.26  2176.49  2177.43
                             2178.70  2187.49  2198.09  2198.44  2199.82
                             2209.49  2373.00  4343.89  4361.02  4362.50
                             4368.75  4377.72  4389.09  4425.05  4445.88
                             4449.85  4469.30  4471.19  4479.45  4490.72
                             4543.21  4556.69  4561.46  4562.03  4577.01
                             4604.21

 Zero-point correction=                           0.294539 (Hartree/Particle)
 Thermal correction to Energy=                    0.312023
 Thermal correction to Enthalpy=                  0.312967
 Thermal correction to Gibbs Free Energy=         0.248921
 Sum of electronic and zero-point Energies=           -768.032037
 Sum of electronic and thermal Energies=              -768.014553
 Sum of electronic and thermal Enthalpies=            -768.013609
 Sum of electronic and thermal Free Energies=         -768.077655

                     E (Thermal)             CV                S
                      KCal/Mol        Cal/Mol-Kelvin    Cal/Mol-Kelvin
 Total                  195.797             61.812            134.797
 Electronic               0.000              0.000              0.000
 Translational            0.889              2.981             42.056
 Rotational               0.889              2.981             32.327
 Vibrational            194.020             55.850             60.413
 Vibration     1          0.594              1.982              5.393
 Vibration     2          0.597              1.974              4.482
 Vibration     3          0.598              1.968              4.128
 Vibration     4          0.600              1.961              3.836
 Vibration     5          0.602              1.955              3.626
 Vibration     6          0.604              1.950              3.474
 Vibration     7          0.608              1.935              3.148
 Vibration     8          0.610              1.928              3.022
 Vibration     9          0.617              1.905              2.703
 Vibration    10          0.623              1.888              2.520
 Vibration    11          0.629              1.868              2.334
 Vibration    12          0.631              1.862              2.288
 Vibration    13          0.642              1.828              2.057
 Vibration    14          0.645              1.817              1.996
 Vibration    15          0.667              1.750              1.679
 Vibration    16          0.678              1.718              1.557
 Vibration    17          0.689              1.683              1.444
 Vibration    18          0.704              1.640              1.323
 Vibration    19          0.714              1.612              1.251
 Vibration    20          0.747              1.520              1.053
 Vibration    21          0.772              1.455              0.937
 Vibration    22          0.795              1.396              0.845
 Vibration    23          0.825              1.321              0.744
 Vibration    24          0.850              1.262              0.672
 Vibration    25          0.886              1.182              0.586
 Vibration    26          0.942              1.064              0.477

                           ! Non-Optimized Parameters !
 Normal termination of Gaussian 16 at Fri May 24 09:17:56 2019.
