 Gaussian 16, Revision A.03,
 Gaussian 16:  ES64L-G16RevA.03 25-Dec-2016

 -------------------------------------------------------------------
 #p b3lyp 6-31g* opt freq=noraman scrf=(pcm,solvent=tetrahydrofuran)
 -------------------------------------------------------------------

 -----
 title
 -----
 Symbolic Z-matrix:
 Charge =  1 Multiplicity = 1

 SCF Done:  E(RB3LYP) =  -768.317414319     A.U. after   15 cycles
 Optimization completed.
    -- Stationary point found.
 Normal termination of Gaussian 16 at Fri May 24 08:34:43 2019.

 --------------------------------------------------------------------
 #P Geom=AllCheck Guess=TCheck SCRF=Check GenChk RB3LYP/6-31G(d) Freq
 --------------------------------------------------------------------

 Structure from the checkpoint file:  "/scratch/Gau-131081.chk"
 -----
 title
 -----
 Charge =  1 Multiplicity = 1

                         Standard orientation:
 ---------------------------------------------------------------------
 Center     Atomic      Atomic             Coordinates (Angstroms)
 Number     Number       Type             X           Y           Z
 ---------------------------------------------------------------------
      1          6           0        1.164935    0.470495    0.192021
      2          6           0        1.832199   -0.768217   -0.481161
      3          6           0        0.979298   -1.985268   -0.309770
      4          6           0       -1.063973   -0.730854    0.144836
      5          6           0       -0.290603    0.515105   -0.339740
      6          1           0        1.427097   -2.978390   -0.385833
      7          1           0        1.802852   -0.608887   -1.575536
      8          1           0        1.150442    0.313254    1.274541
      9          1           0       -1.177870   -0.755151    1.230680
     10          1           0       -0.276940    0.486874   -1.436282
     11          8           0       -0.262186   -1.986715   -0.110356
     12          8           0        3.170130   -1.036212   -0.193009
     13          8           0        1.903606    1.644507    0.021240
     14          8           0       -0.996482    1.688775   -0.040032
     15          6           0       -2.435314   -0.953959   -0.491203
     16          1           0       -2.626257   -2.034914   -0.577859
     17          1           0       -2.468742   -0.519408   -1.501432
     18          8           0       -3.359255   -0.331715    0.371285
     19          6           0        3.531110   -1.067627    1.197478
     20          1           0        4.565371   -1.411703    1.220349
     21          1           0        3.468679   -0.070620    1.643837
     22          1           0        2.907987   -1.771643    1.764433
     23          6           0        2.005422    2.182010   -1.300764
     24          1           0        2.474475    1.474748   -1.997162
     25          1           0        1.027994    2.491803   -1.684310
     26          1           0        2.649624    3.057609   -1.209914
     27          6           0       -1.072931    2.094230    1.333190
     28          1           0       -0.080193    2.299459    1.745901
     29          1           0       -1.653640    3.017659    1.326465
     30          1           0       -1.597041    1.356020    1.949929
     31          6           0       -4.677542   -0.305932   -0.163627
     32          1           0       -5.054568   -1.322653   -0.343304
     33          1           0       -5.306965    0.186675    0.579696
     34          1           0       -4.714416    0.260249   -1.104789
 ---------------------------------------------------------------------

 SCF Done:  E(RB3LYP) =  -768.317414319     A.U. after    1 cycles

 The electronic state is 1-A.
 Alpha  occ. eigenvalues --  -19.33638 -19.20975 -19.19747 -19.19693 -19.18378
 Alpha  occ. eigenvalues --  -10.40187 -10.32402 -10.32268 -10.30037 -10.29973
 Alpha  occ. eigenvalues --  -10.27833 -10.26132 -10.25341 -10.25068 -10.24587
 Alpha  occ. eigenvalues --   -1.22133  -1.09938  -1.08489  -1.06929  -1.06475
 Alpha  occ. eigenvalues --   -0.87495  -0.86171  -0.77787  -0.75607  -0.74498
 Alpha  occ. eigenvalues --   -0.72045  -0.68647  -0.67630  -0.66037  -0.62698
 Alpha  occ. eigenvalues --   -0.60646  -0.58825  -0.55712  -0.55410  -0.54105
 Alpha  occ. eigenvalues --   -0.53029  -0.52029  -0.50945  -0.50360  -0.49377
 Alpha  occ. eigenvalues --   -0.48722  -0.47865  -0.46437  -0.45872  -0.45003
 Alpha  occ. eigenvalues --   -0.44291  -0.43374  -0.42685  -0.41667  -0.41428
 Alpha  occ. eigenvalues --   -0.40523  -0.37036  -0.35763  -0.35520  -0.34749
 Alpha  occ. eigenvalues --   -0.32411  -0.31012  -0.29258  -0.28342
 Alpha virt. eigenvalues --   -0.15832  -0.01345   0.04575   0.04812   0.05924
 Alpha virt. eigenvalues --    0.07542   0.07831   0.08411   0.09302   0.10538
 Alpha virt. eigenvalues --    0.11072   0.11685   0.12050   0.13092   0.13141

 Mulliken charges:
               1
     1  C    0.096302
     2  C    0.032533
     3  C    0.283302
     4  C    0.069359
     5  C    0.084130
     6  H    0.284488
     7  H    0.250350
     8  H    0.193166
     9  H    0.240779
    10  H    0.189238
    11  O   -0.311258
    12  O   -0.468734
    13  O   -0.470728
    14  O   -0.472597
    15  C   -0.029891
    16  H    0.175410
    17  H    0.170332
    18  O   -0.476986
    19  C   -0.242956
    20  H    0.199274
    21  H    0.186119
    22  H    0.162517
    23  C   -0.242788
    24  H    0.162837
    25  H    0.176058
    26  H    0.192168
    27  C   -0.240218
    28  H    0.172598
    29  H    0.189122
    30  H    0.165911
    31  C   -0.212028
    32  H    0.155214
    33  H    0.179328
    34  H    0.157647
 Sum of Mulliken charges =   1.00000

 Dipole moment (field-independent basis, Debye):
    X=              1.0008    Y=             -5.3774    Z=             -0.7895  Tot=              5.5264
 Quadrupole moment (field-independent basis, Debye-Ang):
   XX=            -66.5285   YY=            -72.3580   ZZ=            -77.6090
   XY=             -3.2810   XZ=              3.5856   YZ=              0.4412

  Exact polarizability: 166.683  -3.772 148.492  -3.905   0.951 119.197
 Approx polarizability: 175.712  -1.766 170.757  -5.664   1.841 147.833

                      1                      2                      3
                      A                      A                      A
 Frequencies --     34.0077                51.6490                72.4218
 Red. masses --      3.4047                 3.4904                 2.2967
 Frc consts  --      0.0023                 0.0055                 0.0071
 IR Inten    --      0.9125                 0.8570                10.0891

                      4                      5                      6
                      A                      A                      A
 Frequencies --     76.2081                89.2629                99.7854
 Red. masses --      3.2352                 2.8593                 2.4128
 Frc consts  --      0.0111                 0.0134                 0.0142
 IR Inten    --      1.0426                 3.4270                 6.5551

                      7                      8                      9
                      A                      A                      A
 Frequencies --    114.5340               153.8476               176.0836
 Red. masses --      2.7534                 2.5110                 1.6828
 Frc consts  --      0.0213                 0.0350                 0.0307
 IR Inten    --      2.5670                 5.0366                 0.3204

                     10                     11                     12
                      A                      A                      A
 Frequencies --    182.3154               199.4603               216.6625
 Red. masses --      1.6211                 1.7667                 1.3518
 Frc consts  --      0.0317                 0.0414                 0.0374
 IR Inten    --      0.2196                 3.7446                 1.0771

                     13                     14                     15
                      A                      A                      A
 Frequencies --    222.7116               239.3810               261.0280
 Red. masses --      1.7698                 1.8199                 3.1919
 Frc consts  --      0.0517                 0.0614                 0.1281
 IR Inten    --      2.2249                 5.3777                 8.3924

                     16                     17                     18
                      A                      A                      A
 Frequencies --    265.0100               273.8513               305.8744
 Red. masses --      2.4920                 3.7581                 4.4481
 Frc consts  --      0.1031                 0.1661                 0.2452
 IR Inten    --     14.6397                 2.0603                 3.5108

                     19                     20                     21
                      A                      A                      A
 Frequencies --    329.1775               350.0549               371.7102
 Red. masses --      3.9512                 4.7263                 3.6086
 Frc consts  --      0.2523                 0.3412                 0.2938
 IR Inten    --      5.2817                 4.6168                12.7131

                     22                     23                     24
                      A                      A                      A
 Frequencies --    480.2847               487.6814               499.5925
 Red. masses --      5.5301                 4.0189                 3.7569
 Frc consts  --      0.7516                 0.5632                 0.5525
 IR Inten    --     10.9320                 6.9374                16.0838

                     25                     26                     27
                      A                      A                      A
 Frequencies --    555.9541               563.8458               638.8087
 Red. masses --      4.5718                 3.2649                 2.9431
 Frc consts  --      0.8326                 0.6116                 0.7076
 IR Inten    --     23.9237                 4.3964                14.7140

                     28                     29                     30
                      A                      A                      A
 Frequencies --    712.8914               796.6825               833.9193
 Red. masses --      4.3158                 4.9591                 2.4685
 Frc consts  --      1.2923                 1.8545                 1.0114
 IR Inten    --     60.7213                60.5705                41.9220

                     31                     32                     33
                      A                      A                      A
 Frequencies --    908.5157               948.1414               956.2376
 Red. masses --      4.1280                 3.7164                 2.8417
 Frc consts  --      2.0075                 1.9684                 1.5309
 IR Inten    --      3.3997                 5.6875                64.9020

                     34                     35                     36
                      A                      A                      A
 Frequencies --    966.4250              1003.9511              1030.6753
 Red. masses --      3.6249                 3.4158                 3.4360
 Frc consts  --      1.9947                 2.0285                 2.1505
 IR Inten    --     87.1805                27.2462                22.9614

                     37                     38                     39
                      A                      A                      A
 Frequencies --   1054.8602              1080.2148              1121.7983
 Red. masses --      2.5624                 2.5784                 2.7231
 Frc consts  --      1.6799                 1.7727                 2.0190
 IR Inten    --     38.4877                25.0077                63.2099

                     40                     41                     42
                      A                      A                      A
 Frequencies --   1137.7716              1155.6710              1161.7056
 Red. masses --      2.5205                 3.8116                 3.3114
 Frc consts  --      1.9224                 2.9993                 2.6330
 IR Inten    --     50.6433                 7.8429               266.7068

                     43                     44                     45
                      A                      A                      A
 Frequencies --   1172.0283              1177.0381              1185.0326
 Red. masses --      1.6973                 1.3758                 1.3894
 Frc consts  --      1.3736                 1.1230                 1.1496
 IR Inten    --     49.3734                10.7811                34.6220

                     46                     47                     48
                      A                      A                      A
 Frequencies --   1186.5806              1191.8197              1198.3807
 Red. masses --      1.5022                 1.6963                 2.5794
 Frc consts  --      1.2462                 1.4196                 2.1826
 IR Inten    --     28.4274                35.4108               115.5087

                     49                     50                     51
                      A                      A                      A
 Frequencies --   1230.2564              1231.7141              1236.3867
 Red. masses --      1.7114                 1.6319                 1.8043
 Frc consts  --      1.5262                 1.4587                 1.6251
 IR Inten    --     73.0908                68.2534                32.8251

                     52                     53                     54
                      A                      A                      A
 Frequencies --   1242.9173              1247.1024              1272.1400
 Red. masses --      1.8567                 1.3718                 1.4415
 Frc consts  --      1.6899                 1.2570                 1.3745
 IR Inten    --    105.1768                 5.4420                51.1403

                     55                     56                     57
                      A                      A                      A
 Frequencies --   1300.6253              1325.1620              1352.0790
 Red. masses --      1.2596                 1.2115                 1.2556
 Frc consts  --      1.2554                 1.2535                 1.3524
 IR Inten    --     40.0282                22.4540                 0.8690

                     58                     59                     60
                      A                      A                      A
 Frequencies --   1361.8123              1402.7303              1408.6383
 Red. masses --      1.2515                 1.3439                 1.3571
 Frc consts  --      1.3675                 1.5580                 1.5866
 IR Inten    --      0.1363                 0.9731                35.1827

                     61                     62                     63
                      A                      A                      A
 Frequencies --   1434.5357              1449.5836              1458.5761
 Red. masses --      1.2221                 1.3511                 1.1713
 Frc consts  --      1.4818                 1.6727                 1.4681
 IR Inten    --      1.0663                28.0381                13.6467

                     64                     65                     66
                      A                      A                      A
 Frequencies --   1494.3565              1498.3749              1501.2571
 Red. masses --      1.1482                 1.1586                 1.1487
 Frc consts  --      1.5107                 1.5326                 1.5254
 IR Inten    --      2.6326                 2.7324                 0.6863

                     67                     68                     69
                      A                      A                      A
 Frequencies --   1503.9024              1509.1596              1511.9764
 Red. masses --      1.1158                 1.0483                 1.0664
 Frc consts  --      1.4869                 1.4067                 1.4363
 IR Inten    --      3.5723                 9.6662                 8.9490

                     70                     71                     72
                      A                      A                      A
 Frequencies --   1514.2608              1522.9771              1524.6762
 Red. masses --      1.0558                 1.0485                 1.0585
 Frc consts  --      1.4264                 1.4329                 1.4498
 IR Inten    --     11.5003                12.4976                 9.2658

                     73                     74                     75
                      A                      A                      A
 Frequencies --   1525.6072              1528.7470              1535.0342
 Red. masses --      1.0505                 1.0481                 1.0501
 Frc consts  --      1.4406                 1.4432                 1.4579
 IR Inten    --     12.1628                13.3723                22.2308

                     76                     77                     78
                      A                      A                      A
 Frequencies --   1545.8389              1630.6849              2970.6819
 Red. masses --      1.0911                 6.7790                 1.0781
 Frc consts  --      1.5362                10.6207                 5.6058
 IR Inten    --      3.1298               243.9266                28.0080

                     79                     80                     81
                      A                      A                      A
 Frequencies --   3006.5826              3020.1425              3040.2147
 Red. masses --      1.0526                 1.0380                 1.0380
 Frc consts  --      5.6062                 5.5783                 5.6526
 IR Inten    --     34.2370                70.1064                33.7379

                     82                     83                     84
                      A                      A                      A
 Frequencies --   3041.0204              3046.0629              3056.3746
 Red. masses --      1.0396                 1.1070                 1.0352
 Frc consts  --      5.6644                 6.0516                 5.6976
 IR Inten    --     38.8221                54.7557                47.5183

                     85                     86                     87
                      A                      A                      A
 Frequencies --   3067.7777              3073.7790              3105.9166
 Red. masses --      1.0821                 1.1069                 1.0858
 Frc consts  --      6.0000                 6.1615                 6.1715
 IR Inten    --      5.8135                54.4018                20.7433

                     88                     89                     90
                      A                      A                      A
 Frequencies --   3114.3225              3122.6820              3128.3915
 Red. masses --      1.1012                 1.0994                 1.1034
 Frc consts  --      6.2928                 6.3160                 6.3626
 IR Inten    --     47.9231                29.7809                38.6764

                     91                     92                     93
                      A                      A                      A
 Frequencies --   3135.3544              3160.1334              3170.1511
 Red. masses --      1.0889                 1.0994                 1.1021
 Frc consts  --      6.3070                 6.4689                 6.5259
 IR Inten    --      6.4014                26.6176                19.6889

                     94                     95                     96
                      A                      A                      A
 Frequencies --   3170.7789              3180.7840              3193.4335
 Red. masses --      1.1031                 1.1027                 1.0938
 Frc consts  --      6.5342                 6.5733                 6.5724
 IR Inten    --     20.4654                15.5277                 2.6807

 - Thermochemistry -
 -------------------
 Temperature   298.150 Kelvin.  Pressure   1.00000 Atm.
 Atom     1 has atomic number  6 and mass  12.00000

 Molecular mass:   219.12325 amu.
 Principal axes and moments of inertia in atomic units:
                           1         2         3
     Eigenvalues --  1916.119674681.501995829.01690
           X            0.99998   0.00254   0.00648
           Y           -0.00250   0.99998  -0.00620
           Z           -0.00650   0.00618   0.99996
 This molecule is an asymmetric top.
 Rotational symmetry number  1.
 Warning -- assumption of classical behavior for rotation
           may cause significant error
 Rotational temperatures (Kelvin)      0.04520     0.01850     0.01486
 Rotational constants (GHZ):           0.94187     0.38550     0.30961
 Zero-point vibrational energy     773967.4 (Joules/Mol)
                                  184.98264 (Kcal/Mol)
 Warning -- explicit consideration of  26 degrees of freedom as
           vibrations may cause significant error
 Vibrational temperatures:     48.93    74.31   104.20   109.65   128.43
          (Kelvin)            143.57   164.79   221.35   253.35   262.31
                              286.98   311.73   320.43   344.42   375.56
                              381.29   394.01   440.09   473.61   503.65
                              534.81   691.02   701.66   718.80   799.89
                              811.25   919.10  1025.69  1146.25  1199.82
                             1307.15  1364.16  1375.81  1390.47  1444.46
                             1482.91  1517.71  1554.19  1614.02  1637.00
                             1662.75  1671.44  1686.29  1693.50  1705.00
                             1707.22  1714.76  1724.20  1770.06  1772.16
                             1778.88  1788.28  1794.30  1830.33  1871.31
                             1906.61  1945.34  1959.34  2018.22  2026.72
                             2063.98  2085.63  2098.57  2150.05  2155.83
                             2159.97  2163.78  2171.34  2175.40  2178.68
                             2191.22  2193.67  2195.01  2199.53  2208.57
                             2224.12  2346.19  4274.15  4325.80  4345.31
                             4374.19  4375.35  4382.61  4397.44  4413.85
                             4422.48  4468.72  4480.82  4492.84  4501.06
                             4511.08  4546.73  4561.14  4562.04  4576.44
                             4594.64

 Zero-point correction=                           0.294789 (Hartree/Particle)
 Thermal correction to Energy=                    0.312104
 Thermal correction to Enthalpy=                  0.313048
 Thermal correction to Gibbs Free Energy=         0.249385
 Sum of electronic and zero-point Energies=           -768.022626
 Sum of electronic and thermal Energies=              -768.005311
 Sum of electronic and thermal Enthalpies=            -768.004366
 Sum of electronic and thermal Free Energies=         -768.068029

                     E (Thermal)             CV                S
                      KCal/Mol        Cal/Mol-Kelvin    Cal/Mol-Kelvin
 Total                  195.848             61.646            133.990
 Electronic               0.000              0.000              0.000
 Translational            0.889              2.981             42.056
 Rotational               0.889              2.981             32.325
 Vibrational            194.071             55.685             59.608
 Vibration     1          0.594              1.983              5.581
 Vibration     2          0.596              1.977              4.753
 Vibration     3          0.599              1.967              4.086
 Vibration     4          0.599              1.965              3.986
 Vibration     5          0.602              1.957              3.676
 Vibration     6          0.604              1.949              3.459
 Vibration     7          0.607              1.937              3.191
 Vibration     8          0.619              1.898              2.624
 Vibration     9          0.628              1.872              2.370
 Vibration    10          0.630              1.864              2.305
 Vibration    11          0.638              1.841              2.138
 Vibration    12          0.645              1.816              1.987
 Vibration    13          0.648              1.806              1.937
 Vibration    14          0.657              1.780              1.807
 Vibration    15          0.669              1.744              1.655
 Vibration    16          0.671              1.737              1.629
 Vibration    17          0.676              1.722              1.572
 Vibration    18          0.696              1.663              1.385
 Vibration    19          0.712              1.617              1.264
 Vibration    20          0.727              1.575              1.166
 Vibration    21          0.743              1.530              1.073
 Vibration    22          0.837              1.294              0.709
 Vibration    23          0.844              1.277              0.690
 Vibration    24          0.855              1.251              0.659
 Vibration    25          0.911              1.127              0.532
 Vibration    26          0.920              1.109              0.516

                           ! Non-Optimized Parameters !
 Normal termination of Gaussian 16 at Fri May 24 08:55:09 2019.
