 Gaussian 16, Revision A.03,
 Gaussian 16:  ES64L-G16RevA.03 25-Dec-2016

 -------------------------------------------------------------------
 #p b3lyp 6-31g* opt freq=noraman scrf=(pcm,solvent=tetrahydrofuran)
 -------------------------------------------------------------------

 -----
 title
 -----
 Symbolic Z-matrix:
 Charge =  1 Multiplicity = 1

 SCF Done:  E(RB3LYP) =  -768.321274360     A.U. after   14 cycles
 Optimization completed.
    -- Stationary point found.
 Normal termination of Gaussian 16 at Fri May 24 08:37:22 2019.

 --------------------------------------------------------------------
 #P Geom=AllCheck Guess=TCheck SCRF=Check GenChk RB3LYP/6-31G(d) Freq
 --------------------------------------------------------------------

 Structure from the checkpoint file:  "/scratch/Gau-60975.chk"
 -----
 title
 -----
 Charge =  1 Multiplicity = 1

                         Standard orientation:
 ---------------------------------------------------------------------
 Center     Atomic      Atomic             Coordinates (Angstroms)
 Number     Number       Type             X           Y           Z
 ---------------------------------------------------------------------
      1          6           0       -0.834528    0.752761    0.466682
      2          6           0       -1.616968   -0.400338   -0.276518
      3          6           0       -1.123925   -0.562531   -1.665282
      4          6           0        1.134663   -0.210846   -0.957857
      5          6           0        0.632056    0.910314   -0.048137
      6          1           0       -1.815809   -0.699447   -2.497541
      7          1           0       -1.392736   -1.344545    0.249419
      8          1           0       -1.363991    1.662445    0.175291
      9          1           0        1.944892    0.182838   -1.568629
     10          1           0        1.316486    0.945233    0.809450
     11          8           0        0.092900   -0.505821   -1.995921
     12          8           0       -2.982048   -0.109671   -0.276612
     13          8           0       -0.992211    0.675942    1.854398
     14          8           0        0.736431    2.089177   -0.829508
     15          6           0        1.555956   -1.538852   -0.291647
     16          1           0        1.911506   -2.227750   -1.068395
     17          1           0        0.713464   -2.015557    0.217300
     18          8           0        2.535779   -1.285491    0.684362
     19          6           0       -3.845812   -1.229248   -0.036972
     20          1           0       -3.615886   -1.697766    0.927891
     21          1           0       -4.859131   -0.827581   -0.016427
     22          1           0       -3.767487   -1.976506   -0.836054
     23          6           0       -0.394341   -0.419431    2.546474
     24          1           0       -0.542807   -0.214877    3.607720
     25          1           0       -0.888612   -1.372168    2.308837
     26          1           0        0.679661   -0.508257    2.345093
     27          6           0        0.826466    3.290967   -0.062997
     28          1           0        1.703263    3.267611    0.597563
     29          1           0        0.931218    4.104692   -0.782372
     30          1           0       -0.073008    3.462273    0.542443
     31          6           0        3.881199   -1.248527    0.196438
     32          1           0        4.048533   -0.411041   -0.492302
     33          1           0        4.518003   -1.119288    1.072858
     34          1           0        4.137028   -2.189010   -0.307005
 ---------------------------------------------------------------------

 SCF Done:  E(RB3LYP) =  -768.321274360     A.U. after    1 cycles

 The electronic state is 1-A.
 Alpha  occ. eigenvalues --  -19.32893 -19.20896 -19.19932 -19.19739 -19.19139
 Alpha  occ. eigenvalues --  -10.39405 -10.32227 -10.31946 -10.30217 -10.29587
 Alpha  occ. eigenvalues --  -10.28998 -10.26123 -10.25776 -10.25379 -10.25119
 Alpha  occ. eigenvalues --   -1.21664  -1.09942  -1.08220  -1.07659  -1.07021
 Alpha  occ. eigenvalues --   -0.86955  -0.85586  -0.77752  -0.75347  -0.75005
 Alpha  occ. eigenvalues --   -0.71507  -0.69324  -0.68499  -0.66484  -0.62032
 Alpha  occ. eigenvalues --   -0.60125  -0.59125  -0.56573  -0.54492  -0.53833
 Alpha  occ. eigenvalues --   -0.52832  -0.52611  -0.51510  -0.50828  -0.49009
 Alpha  occ. eigenvalues --   -0.48286  -0.48113  -0.47438  -0.46321  -0.45608
 Alpha  occ. eigenvalues --   -0.44707  -0.43053  -0.42379  -0.42045  -0.41391
 Alpha  occ. eigenvalues --   -0.39885  -0.37576  -0.36433  -0.36186  -0.34636
 Alpha  occ. eigenvalues --   -0.32033  -0.31621  -0.30211  -0.28491
 Alpha virt. eigenvalues --   -0.15365   0.00435   0.03439   0.03893   0.05355
 Alpha virt. eigenvalues --    0.06755   0.07824   0.08226   0.08951   0.09318
 Alpha virt. eigenvalues --    0.10380   0.11400   0.12241   0.12501   0.13058

 Mulliken charges:
               1
     1  C    0.131934
     2  C    0.010995
     3  C    0.284228
     4  C    0.041716
     5  C    0.077981
     6  H    0.280964
     7  H    0.224762
     8  H    0.218236
     9  H    0.237685
    10  H    0.203374
    11  O   -0.308700
    12  O   -0.469634
    13  O   -0.463979
    14  O   -0.494359
    15  C   -0.058032
    16  H    0.194395
    17  H    0.178098
    18  O   -0.460914
    19  C   -0.234386
    20  H    0.177994
    21  H    0.198098
    22  H    0.168758
    23  C   -0.259866
    24  H    0.198041
    25  H    0.161947
    26  H    0.179039
    27  C   -0.227016
    28  H    0.164838
    29  H    0.186155
    30  H    0.164477
    31  C   -0.227857
    32  H    0.163769
    33  H    0.188950
    34  H    0.168311
 Sum of Mulliken charges =   1.00000

 Dipole moment (field-independent basis, Debye):
    X=             -0.3215    Y=             -3.9917    Z=             -3.0788  Tot=              5.0513
 Quadrupole moment (field-independent basis, Debye-Ang):
   XX=            -61.0051   YY=            -73.6544   ZZ=            -78.8348
   XY=              7.3623   XZ=              3.1495   YZ=              3.6170

  Exact polarizability: 165.414   4.239 132.516   2.118   3.686 143.087
 Approx polarizability: 177.779   0.933 150.921   0.062   6.359 177.523

                      1                      2                      3
                      A                      A                      A
 Frequencies --     38.5295                48.8448                71.5170
 Red. masses --      4.2508                 3.5147                 3.5616
 Frc consts  --      0.0037                 0.0049                 0.0107
 IR Inten    --      2.2462                 1.6398                 0.8042

                      4                      5                      6
                      A                      A                      A
 Frequencies --     95.5486               104.3189               120.2811
 Red. masses --      2.8900                 2.1541                 3.0388
 Frc consts  --      0.0155                 0.0138                 0.0259
 IR Inten    --      3.7909                 6.8415                 7.5211

                      7                      8                      9
                      A                      A                      A
 Frequencies --    131.2029               155.1953               164.7721
 Red. masses --      1.9479                 2.2743                 1.7118
 Frc consts  --      0.0198                 0.0323                 0.0274
 IR Inten    --      2.5202                 1.4573                 2.1334

                     10                     11                     12
                      A                      A                      A
 Frequencies --    173.1270               181.2504               201.5618
 Red. masses --      1.7358                 1.5772                 1.5572
 Frc consts  --      0.0307                 0.0305                 0.0373
 IR Inten    --      3.0836                 2.0849                 0.1344

                     13                     14                     15
                      A                      A                      A
 Frequencies --    217.1777               227.5476               263.8037
 Red. masses --      2.9505                 1.2954                 3.4158
 Frc consts  --      0.0820                 0.0395                 0.1401
 IR Inten    --      4.0165                 0.2700                 4.3178

                     16                     17                     18
                      A                      A                      A
 Frequencies --    280.9802               299.8973               326.4994
 Red. masses --      3.4243                 3.4531                 4.1365
 Frc consts  --      0.1593                 0.1830                 0.2598
 IR Inten    --      4.2459                 9.9802                 7.4456

                     19                     20                     21
                      A                      A                      A
 Frequencies --    397.5654               411.1956               441.5035
 Red. masses --      3.8397                 3.8052                 4.1857
 Frc consts  --      0.3576                 0.3791                 0.4807
 IR Inten    --      9.3191                 2.2948                11.8738

                     22                     23                     24
                      A                      A                      A
 Frequencies --    457.1713               478.6024               495.5664
 Red. masses --      3.3573                 3.0359                 4.8492
 Frc consts  --      0.4134                 0.4097                 0.7017
 IR Inten    --     22.8315                14.5564                19.2210

                     25                     26                     27
                      A                      A                      A
 Frequencies --    528.7509               581.9965               610.8855
 Red. masses --      3.4837                 4.1180                 3.7770
 Frc consts  --      0.5738                 0.8218                 0.8305
 IR Inten    --     37.8327                14.7280                10.6737

                     28                     29                     30
                      A                      A                      A
 Frequencies --    747.0183               772.3792               809.1111
 Red. masses --      4.7400                 3.0739                 2.6362
 Frc consts  --      1.5584                 1.0804                 1.0168
 IR Inten    --     53.4393                25.5918                30.6660

                     31                     32                     33
                      A                      A                      A
 Frequencies --    915.6217               935.5784               949.9473
 Red. masses --      3.0728                 3.9852                 4.1947
 Frc consts  --      1.5178                 2.0552                 2.2303
 IR Inten    --     43.8086                56.1378                53.1898

                     34                     35                     36
                      A                      A                      A
 Frequencies --    968.7647               999.4957              1031.4054
 Red. masses --      3.1043                 4.6502                 3.5316
 Frc consts  --      1.7165                 2.7371                 2.2135
 IR Inten    --     30.3429                 7.8374                15.3875

                     37                     38                     39
                      A                      A                      A
 Frequencies --   1050.5406              1069.5751              1099.1942
 Red. masses --      2.5134                 3.5883                 2.6745
 Frc consts  --      1.6343                 2.4186                 1.9039
 IR Inten    --     63.2484               134.1487                76.1934

                     40                     41                     42
                      A                      A                      A
 Frequencies --   1114.5242              1130.5432              1149.0172
 Red. masses --      2.1768                 5.6050                 2.8098
 Frc consts  --      1.5931                 4.2208                 2.1856
 IR Inten    --     45.4272               246.4038               100.1611

                     43                     44                     45
                      A                      A                      A
 Frequencies --   1154.9085              1167.7108              1178.7234
 Red. masses --      2.5320                 4.1895                 1.3032
 Frc consts  --      1.9898                 3.3657                 1.0668
 IR Inten    --    137.4195               102.8488                 6.6396

                     46                     47                     48
                      A                      A                      A
 Frequencies --   1185.8202              1191.2378              1199.1767
 Red. masses --      1.2615                 1.2986                 1.2710
 Frc consts  --      1.0451                 1.0857                 1.0769
 IR Inten    --      3.6970                 2.9383                 0.7295

                     49                     50                     51
                      A                      A                      A
 Frequencies --   1209.1619              1222.2759              1223.4861
 Red. masses --      1.7122                 1.7296                 1.4467
 Frc consts  --      1.4750                 1.5224                 1.2759
 IR Inten    --    164.6721                62.2439                 7.9700

                     52                     53                     54
                      A                      A                      A
 Frequencies --   1235.4153              1236.9200              1284.6864
 Red. masses --      1.6361                 1.5458                 1.4453
 Frc consts  --      1.4713                 1.3934                 1.4054
 IR Inten    --     52.6303                20.9881                15.3925

                     55                     56                     57
                      A                      A                      A
 Frequencies --   1312.2924              1334.1505              1338.0854
 Red. masses --      1.3500                 1.2453                 1.2650
 Frc consts  --      1.3697                 1.3060                 1.3345
 IR Inten    --      2.8652                17.4322                39.5904

                     58                     59                     60
                      A                      A                      A
 Frequencies --   1354.1922              1362.8808              1398.9755
 Red. masses --      1.2829                 1.2068                 1.2759
 Frc consts  --      1.3861                 1.3207                 1.4712
 IR Inten    --     23.3545                 8.0111                11.4807

                     61                     62                     63
                      A                      A                      A
 Frequencies --   1406.1993              1419.5184              1424.8803
 Red. masses --      1.3413                 1.2915                 1.3422
 Frc consts  --      1.5627                 1.5333                 1.6055
 IR Inten    --     25.0139                36.9523                22.6302

                     64                     65                     66
                      A                      A                      A
 Frequencies --   1496.6579              1502.0182              1503.7822
 Red. masses --      1.1144                 1.1273                 1.1265
 Frc consts  --      1.4708                 1.4985                 1.5009
 IR Inten    --      0.9006                 0.8152                 2.1111

                     67                     68                     69
                      A                      A                      A
 Frequencies --   1506.4454              1513.0972              1515.6653
 Red. masses --      1.1085                 1.0501                 1.0632
 Frc consts  --      1.4822                 1.4165                 1.4391
 IR Inten    --      3.5471                11.2752                11.7115

                     70                     71                     72
                      A                      A                      A
 Frequencies --   1517.7053              1521.7029              1523.9000
 Red. masses --      1.0498                 1.0469                 1.0640
 Frc consts  --      1.4247                 1.4283                 1.4558
 IR Inten    --     18.5563                 1.7442                 8.8176

                     73                     74                     75
                      A                      A                      A
 Frequencies --   1529.0272              1529.9499              1532.9857
 Red. masses --      1.0670                 1.0757                 1.0822
 Frc consts  --      1.4698                 1.4835                 1.4984
 IR Inten    --     16.7516                16.2341                 6.2544

                     76                     77                     78
                      A                      A                      A
 Frequencies --   1541.5677              1621.9870              2986.9159
 Red. masses --      1.0693                 5.2343                 1.0775
 Frc consts  --      1.4971                 8.1135                 5.6636
 IR Inten    --     28.8435               212.0734                31.3804

                     79                     80                     81
                      A                      A                      A
 Frequencies --   3024.9011              3030.2237              3038.8645
 Red. masses --      1.0415                 1.0343                 1.0338
 Frc consts  --      5.6149                 5.5956                 5.6246
 IR Inten    --     33.5891                52.8381                55.5976

                     82                     83                     84
                      A                      A                      A
 Frequencies --   3042.5416              3060.5469              3061.9110
 Red. masses --      1.0337                 1.0618                 1.0841
 Frc consts  --      5.6380                 5.8597                 5.9885
 IR Inten    --     45.1638                35.2922                 8.1449

                     85                     86                     87
                      A                      A                      A
 Frequencies --   3089.9785              3096.7652              3101.4926
 Red. masses --      1.1068                 1.0985                 1.1070
 Frc consts  --      6.2263                 6.2070                 6.2737
 IR Inten    --     52.9667                45.6742                50.3554

                     88                     89                     90
                      A                      A                      A
 Frequencies --   3108.3269              3119.1992              3123.2885
 Red. masses --      1.1075                 1.1035                 1.0866
 Frc consts  --      6.3043                 6.3256                 6.2452
 IR Inten    --     41.4292                20.4732                 4.7949

                     91                     92                     93
                      A                      A                      A
 Frequencies --   3166.1060              3168.3558              3169.2601
 Red. masses --      1.1006                 1.1003                 1.1013
 Frc consts  --      6.5003                 6.5076                 6.5173
 IR Inten    --     23.6794                15.2843                22.0293

                     94                     95                     96
                      A                      A                      A
 Frequencies --   3181.1318              3181.4306              3205.2823
 Red. masses --      1.0882                 1.1009                 1.0945
 Frc consts  --      6.4884                 6.5650                 6.6254
 IR Inten    --      4.9491                16.2076                 4.7229

 - Thermochemistry -
 -------------------
 Temperature   298.150 Kelvin.  Pressure   1.00000 Atm.
 Atom     1 has atomic number  6 and mass  12.00000

 Molecular mass:   219.12325 amu.
 Principal axes and moments of inertia in atomic units:
                           1         2         3
     Eigenvalues --  2512.397234195.092884531.87884
           X            0.99983   0.01826  -0.00107
           Y           -0.01827   0.99981  -0.00746
           Z            0.00094   0.00748   0.99997
 This molecule is an asymmetric top.
 Rotational symmetry number  1.
 Warning -- assumption of classical behavior for rotation
           may cause significant error
 Rotational temperatures (Kelvin)      0.03447     0.02065     0.01911
 Rotational constants (GHZ):           0.71833     0.43020     0.39823
 Zero-point vibrational energy     773994.2 (Joules/Mol)
                                  184.98905 (Kcal/Mol)
 Warning -- explicit consideration of  27 degrees of freedom as
           vibrations may cause significant error
 Vibrational temperatures:     55.44    70.28   102.90   137.47   150.09
          (Kelvin)            173.06   188.77   223.29   237.07   249.09
                              260.78   290.00   312.47   327.39   379.55
                              404.27   431.49   469.76   572.01   591.62
                              635.23   657.77   688.60   713.01   760.75
                              837.36   878.93  1074.79  1111.28  1164.13
                             1317.38  1346.09  1366.76  1393.84  1438.05
                             1483.96  1511.49  1538.88  1581.50  1603.55
                             1626.60  1653.18  1661.66  1680.08  1695.92
                             1706.13  1713.93  1725.35  1739.71  1758.58
                             1760.32  1777.49  1779.65  1848.38  1888.10
                             1919.54  1925.21  1948.38  1960.88  2012.81
                             2023.21  2042.37  2050.08  2153.36  2161.07
                             2163.61  2167.44  2177.01  2180.70  2183.64
                             2189.39  2192.55  2199.93  2201.26  2205.62
                             2217.97  2333.68  4297.51  4352.16  4359.82
                             4372.25  4377.54  4403.44  4405.41  4445.79
                             4455.55  4462.36  4472.19  4487.83  4493.72
                             4555.32  4558.56  4559.86  4576.94  4577.37
                             4611.69

 Zero-point correction=                           0.294799 (Hartree/Particle)
 Thermal correction to Energy=                    0.311871
 Thermal correction to Enthalpy=                  0.312815
 Thermal correction to Gibbs Free Energy=         0.250041
 Sum of electronic and zero-point Energies=           -768.026476
 Sum of electronic and thermal Energies=              -768.009403
 Sum of electronic and thermal Enthalpies=            -768.008459
 Sum of electronic and thermal Free Energies=         -768.071234

                     E (Thermal)             CV                S
                      KCal/Mol        Cal/Mol-Kelvin    Cal/Mol-Kelvin
 Total                  195.702             61.516            132.120
 Electronic               0.000              0.000              0.000
 Translational            0.889              2.981             42.056
 Rotational               0.889              2.981             32.235
 Vibrational            193.925             55.555             57.829
 Vibration     1          0.594              1.981              5.333
 Vibration     2          0.595              1.978              4.864
 Vibration     3          0.598              1.968              4.111
 Vibration     4          0.603              1.952              3.543
 Vibration     5          0.605              1.946              3.372
 Vibration     6          0.609              1.932              3.096
 Vibration     7          0.612              1.922              2.928
 Vibration     8          0.620              1.897              2.608
 Vibration     9          0.623              1.886              2.494
 Vibration    10          0.627              1.876              2.401
 Vibration    11          0.630              1.865              2.315
 Vibration    12          0.638              1.838              2.119
 Vibration    13          0.646              1.815              1.982
 Vibration    14          0.651              1.799              1.898
 Vibration    15          0.670              1.739              1.636
 Vibration    16          0.681              1.709              1.528
 Vibration    17          0.692              1.674              1.417
 Vibration    18          0.710              1.623              1.277
 Vibration    19          0.764              1.475              0.972
 Vibration    20          0.775              1.446              0.922
 Vibration    21          0.801              1.380              0.822
 Vibration    22          0.815              1.345              0.774
 Vibration    23          0.835              1.298              0.714
 Vibration    24          0.851              1.260              0.669
 Vibration    25          0.884              1.186              0.590
 Vibration    26          0.939              1.070              0.482
 Vibration    27          0.970              1.009              0.431

 Optimization completed.
    -- Stationary point found.
 Normal termination of Gaussian 16 at Fri May 24 09:18:42 2019.
