 Gaussian 16, Revision A.03,
 Gaussian 16:  ES64L-G16RevA.03 25-Dec-2016

 -------------------------------------------------------------------
 #p b3lyp 6-31g* opt freq=noraman scrf=(pcm,solvent=tetrahydrofuran)
 -------------------------------------------------------------------

 -----
 title
 -----
 Symbolic Z-matrix:
 Charge =  1 Multiplicity = 1

 SCF Done:  E(RB3LYP) =  -768.315792551     A.U. after   14 cycles
 Optimization completed.
    -- Stationary point found.
 Normal termination of Gaussian 16 at Fri May 24 08:33:43 2019.

 --------------------------------------------------------------------
 #P Geom=AllCheck Guess=TCheck SCRF=Check GenChk RB3LYP/6-31G(d) Freq
 --------------------------------------------------------------------

 Structure from the checkpoint file:  "/scratch/Gau-24100.chk"
 -----
 title
 -----
 Charge =  1 Multiplicity = 1

                         Standard orientation:
 ---------------------------------------------------------------------
 Center     Atomic      Atomic             Coordinates (Angstroms)
 Number     Number       Type             X           Y           Z
 ---------------------------------------------------------------------
      1          6           0       -0.953535    0.711227    0.170140
      2          6           0       -1.532237   -0.631544   -0.423700
      3          6           0       -0.887408   -0.914593   -1.724483
      4          6           0        1.247957   -0.290887   -0.825997
      5          6           0        0.571488    0.900241   -0.135273
      6          1           0       -1.476544   -1.230988   -2.586169
      7          1           0       -1.242504   -1.466850    0.241809
      8          1           0       -1.474391    1.493452   -0.386687
      9          1           0        2.103731    0.066730   -1.395758
     10          1           0        1.107113    1.071628    0.809164
     11          8           0        0.346787   -0.779966   -1.931376
     12          8           0       -2.910184   -0.584030   -0.632702
     13          8           0       -1.348321    0.909272    1.501978
     14          8           0        0.753505    1.993047   -1.015335
     15          6           0        1.695038   -1.508059    0.029188
     16          1           0        1.379937   -2.427715   -0.473428
     17          1           0        1.227414   -1.481999    1.023320
     18          8           0        3.092940   -1.576562    0.132925
     19          6           0       -3.718776   -1.073987    0.447560
     20          1           0       -3.448374   -2.107259    0.699594
     21          1           0       -3.624748   -0.432751    1.328490
     22          1           0       -4.746189   -1.048828    0.083054
     23          6           0       -0.813880    0.057149    2.513176
     24          1           0       -1.108209   -0.991562    2.371494
     25          1           0        0.278266    0.124507    2.578456
     26          1           0       -1.242415    0.409938    3.452185
     27          6           0        0.625789    3.273317   -0.394191
     28          1           0       -0.377355    3.431474    0.021702
     29          1           0        1.368822    3.394361    0.405171
     30          1           0        0.807854    4.010659   -1.177389
     31          6           0        3.674119   -0.699994    1.096963
     32          1           0        3.607278    0.353712    0.793796
     33          1           0        3.203197   -0.824524    2.081505
     34          1           0        4.727974   -0.975286    1.165479
 ---------------------------------------------------------------------

 SCF Done:  E(RB3LYP) =  -768.315792551     A.U. after    1 cycles

 The electronic state is 1-A.
 Alpha  occ. eigenvalues --  -19.33000 -19.20749 -19.20587 -19.19384 -19.19091
 Alpha  occ. eigenvalues --  -10.39607 -10.32486 -10.32146 -10.30489 -10.30321
 Alpha  occ. eigenvalues --  -10.29023 -10.26414 -10.25865 -10.25281 -10.25277
 Alpha  occ. eigenvalues --   -1.21877  -1.10042  -1.08463  -1.07447  -1.07272
 Alpha  occ. eigenvalues --   -0.87045  -0.86024  -0.78085  -0.75727  -0.74787
 Alpha  occ. eigenvalues --   -0.71472  -0.69492  -0.68827  -0.66288  -0.62314
 Alpha  occ. eigenvalues --   -0.60222  -0.59427  -0.56744  -0.54572  -0.53768
 Alpha  occ. eigenvalues --   -0.53270  -0.52891  -0.51510  -0.50854  -0.49169
 Alpha  occ. eigenvalues --   -0.48676  -0.48323  -0.47217  -0.46403  -0.46148
 Alpha  occ. eigenvalues --   -0.44354  -0.43433  -0.42394  -0.42240  -0.41575
 Alpha  occ. eigenvalues --   -0.40362  -0.37207  -0.36641  -0.35643  -0.35228
 Alpha  occ. eigenvalues --   -0.33461  -0.31438  -0.30057  -0.28076
 Alpha virt. eigenvalues --   -0.15467  -0.00253   0.03406   0.03828   0.04149
 Alpha virt. eigenvalues --    0.05929   0.07058   0.08698   0.09155   0.09592
 Alpha virt. eigenvalues --    0.10711   0.11200   0.11509   0.11657   0.12470

 Mulliken charges:
               1
     1  C    0.127022
     2  C    0.016587
     3  C    0.288827
     4  C    0.049727
     5  C    0.070798
     6  H    0.284643
     7  H    0.229287
     8  H    0.218170
     9  H    0.249496
    10  H    0.194190
    11  O   -0.308281
    12  O   -0.478681
    13  O   -0.465957
    14  O   -0.489936
    15  C   -0.067480
    16  H    0.202827
    17  H    0.170114
    18  O   -0.458087
    19  C   -0.234072
    20  H    0.169092
    21  H    0.182678
    22  H    0.194137
    23  C   -0.251946
    24  H    0.164326
    25  H    0.170592
    26  H    0.203097
    27  C   -0.228819
    28  H    0.166324
    29  H    0.164922
    30  H    0.188374
    31  C   -0.232852
    32  H    0.159432
    33  H    0.162099
    34  H    0.189350
 Sum of Mulliken charges =   1.00000

 Dipole moment (field-independent basis, Debye):
    X=             -1.4548    Y=             -2.3026    Z=              0.5792  Tot=              2.7846
 Quadrupole moment (field-independent basis, Debye-Ang):
   XX=            -72.8899   YY=            -76.2980   ZZ=            -74.6622
   XY=             10.8090   XZ=              4.9542   YZ=              1.6589

  Exact polarizability: 161.074   5.410 132.820   0.915   5.419 142.624
 Approx polarizability: 176.991   0.864 152.279  -2.679   9.397 174.050

                      1                      2                      3
                      A                      A                      A
 Frequencies --     37.3111                48.2734                58.4119
 Red. masses --      4.4191                 3.5576                 2.8899
 Frc consts  --      0.0036                 0.0049                 0.0058
 IR Inten    --      0.9630                 2.4214                 5.2919

                      4                      5                      6
                      A                      A                      A
 Frequencies --     89.3353               100.4187               111.7005
 Red. masses --      2.9054                 2.8114                 2.2466
 Frc consts  --      0.0137                 0.0167                 0.0165
 IR Inten    --      2.1449                 6.9543                 8.7670

                      7                      8                      9
                      A                      A                      A
 Frequencies --    143.1296               163.7627               166.4758
 Red. masses --      3.2315                 1.4664                 1.7340
 Frc consts  --      0.0390                 0.0232                 0.0283
 IR Inten    --      2.5394                 0.4556                 0.3216

                     10                     11                     12
                      A                      A                      A
 Frequencies --    188.2817               190.2797               209.1937
 Red. masses --      1.3177                 2.0005                 1.6383
 Frc consts  --      0.0275                 0.0427                 0.0422
 IR Inten    --      2.7200                 0.8001                 5.2495

                     13                     14                     15
                      A                      A                      A
 Frequencies --    230.9722               251.5456               264.3384
 Red. masses --      1.4394                 2.9266                 3.3037
 Frc consts  --      0.0452                 0.1091                 0.1360
 IR Inten    --      0.6719                 4.1189                 5.8565

                     16                     17                     18
                      A                      A                      A
 Frequencies --    281.5358               292.9746               330.5859
 Red. masses --      2.8425                 4.4274                 4.0955
 Frc consts  --      0.1327                 0.2239                 0.2637
 IR Inten    --      0.3707                 2.7160                 9.2827

                     19                     20                     21
                      A                      A                      A
 Frequencies --    390.6976               395.4181               412.0848
 Red. masses --      4.4739                 3.4767                 4.2016
 Frc consts  --      0.4024                 0.3203                 0.4204
 IR Inten    --     22.0140                 4.6664                 3.6679

                     22                     23                     24
                      A                      A                      A
 Frequencies --    459.9683               467.2120               505.4833
 Red. masses --      3.4372                 2.8924                 4.6613
 Frc consts  --      0.4285                 0.3720                 0.7017
 IR Inten    --     13.9821                10.9944                20.3598

                     25                     26                     27
                      A                      A                      A
 Frequencies --    532.5337               569.8680               600.5895
 Red. masses --      3.4299                 4.1085                 4.0403
 Frc consts  --      0.5731                 0.7861                 0.8587
 IR Inten    --     27.9898                15.3182                 5.1468

                     28                     29                     30
                      A                      A                      A
 Frequencies --    724.5704               781.3386               833.3909
 Red. masses --      4.8274                 2.7042                 4.1873
 Frc consts  --      1.4932                 0.9727                 1.7135
 IR Inten    --     55.1399                83.2365                20.7009

                     31                     32                     33
                      A                      A                      A
 Frequencies --    913.2521               940.5332               956.0740
 Red. masses --      2.8579                 4.3546                 4.3424
 Frc consts  --      1.4044                 2.2696                 2.3386
 IR Inten    --      1.8971                20.9435                63.0577

                     34                     35                     36
                      A                      A                      A
 Frequencies --    960.5549              1008.7685              1017.2995
 Red. masses --      3.0903                 4.9295                 3.1550
 Frc consts  --      1.6800                 2.9556                 1.9237
 IR Inten    --     28.3718                30.0386                24.3629

                     37                     38                     39
                      A                      A                      A
 Frequencies --   1048.2018              1069.7369              1074.7478
 Red. masses --      2.7467                 3.1578                 2.7552
 Frc consts  --      1.7781                 2.1291                 1.8751
 IR Inten    --     98.8472                76.5326                87.5012

                     40                     41                     42
                      A                      A                      A
 Frequencies --   1109.3725              1130.6519              1156.1952
 Red. masses --      2.3133                 6.1361                 3.5397
 Frc consts  --      1.6774                 4.6217                 2.7879
 IR Inten    --     44.0378               252.0163                35.2597

                     43                     44                     45
                      A                      A                      A
 Frequencies --   1160.8022              1172.8181              1182.5546
 Red. masses --      3.6051                 2.3278                 1.2963
 Frc consts  --      2.8621                 1.8865                 1.0681
 IR Inten    --    226.0688                56.6208                 8.2178

                     46                     47                     48
                      A                      A                      A
 Frequencies --   1184.3541              1190.4147              1193.2579
 Red. masses --      1.2829                 1.3106                 1.2894
 Frc consts  --      1.0603                 1.0943                 1.0817
 IR Inten    --      4.9207                 5.7149                 4.2415

                     49                     50                     51
                      A                      A                      A
 Frequencies --   1218.2690              1221.8604              1226.9517
 Red. masses --      1.6112                 1.4484                 1.5951
 Frc consts  --      1.4090                 1.2740                 1.4148
 IR Inten    --    168.4961                32.7170                84.2431

                     52                     53                     54
                      A                      A                      A
 Frequencies --   1230.9859              1234.7396              1282.0689
 Red. masses --      1.5682                 1.6302                 1.3429
 Frc consts  --      1.4001                 1.4643                 1.3005
 IR Inten    --      7.6654                23.3479                 8.9662

                     55                     56                     57
                      A                      A                      A
 Frequencies --   1305.6284              1328.6882              1335.3240
 Red. masses --      1.2890                 1.2854                 1.2925
 Frc consts  --      1.2946                 1.3370                 1.3578
 IR Inten    --      3.9969                 8.6956                31.7980

                     58                     59                     60
                      A                      A                      A
 Frequencies --   1349.6594              1367.3510              1401.9162
 Red. masses --      1.2541                 1.2488                 1.3847
 Frc consts  --      1.3459                 1.3756                 1.6035
 IR Inten    --     14.9959                47.9331                14.7294

                     61                     62                     63
                      A                      A                      A
 Frequencies --   1407.7867              1426.5447              1428.9899
 Red. masses --      1.3361                 1.2069                 1.2302
 Frc consts  --      1.5602                 1.4471                 1.4801
 IR Inten    --     21.5744                29.1315                33.5659

                     64                     65                     66
                      A                      A                      A
 Frequencies --   1497.6227              1500.7808              1501.0391
 Red. masses --      1.1524                 1.1060                 1.1162
 Frc consts  --      1.5229                 1.4677                 1.4818
 IR Inten    --      1.1674                 0.6028                 1.8483

                     67                     68                     69
                      A                      A                      A
 Frequencies --   1502.9947              1512.0765              1515.2500
 Red. masses --      1.1126                 1.0531                 1.0577
 Frc consts  --      1.4808                 1.4186                 1.4308
 IR Inten    --      1.3371                 6.2447                14.0010

                     70                     71                     72
                      A                      A                      A
 Frequencies --   1516.8398              1523.3308              1527.1302
 Red. masses --      1.0535                 1.0816                 1.0478
 Frc consts  --      1.4281                 1.4788                 1.4398
 IR Inten    --     10.9181                 9.1844                 8.0743

                     73                     74                     75
                      A                      A                      A
 Frequencies --   1529.6938              1531.1797              1536.5083
 Red. masses --      1.0714                 1.0539                 1.0880
 Frc consts  --      1.4771                 1.4559                 1.5133
 IR Inten    --     24.5742                19.1791                 4.0413

                     76                     77                     78
                      A                      A                      A
 Frequencies --   1539.1726              1640.7182              2959.7604
 Red. masses --      1.0637                 5.7558                 1.0779
 Frc consts  --      1.4847                 9.1291                 5.5637
 IR Inten    --     18.9791               189.3660                32.9360

                     79                     80                     81
                      A                      A                      A
 Frequencies --   3022.7535              3031.0083              3036.7455
 Red. masses --      1.0357                 1.0359                 1.0444
 Frc consts  --      5.5757                 5.6070                 5.6744
 IR Inten    --     49.6723                46.7167                17.1966

                     82                     83                     84
                      A                      A                      A
 Frequencies --   3038.1840              3043.8426              3049.3170
 Red. masses --      1.0643                 1.0764                 1.0371
 Frc consts  --      5.7884                 5.8760                 5.6818
 IR Inten    --     29.5111                38.7463                56.2416

                     85                     86                     87
                      A                      A                      A
 Frequencies --   3081.4876              3091.8968              3106.0672
 Red. masses --      1.1059                 1.1067                 1.0992
 Frc consts  --      6.1871                 6.2334                 6.2479
 IR Inten    --     58.8390                50.3342                61.6368

                     88                     89                     90
                      A                      A                      A
 Frequencies --   3115.4504              3117.4166              3130.2043
 Red. masses --      1.0999                 1.0869                 1.1017
 Frc consts  --      6.2896                 6.2234                 6.3602
 IR Inten    --      9.7027                 3.5046                28.2077

                     91                     92                     93
                      A                      A                      A
 Frequencies --   3162.3952              3169.3764              3170.6411
 Red. masses --      1.0992                 1.1004                 1.1001
 Frc consts  --      6.4766                 6.5127                 6.5157
 IR Inten    --     26.6244                22.7380                15.5002

                     94                     95                     96
                      A                      A                      A
 Frequencies --   3179.9974              3180.6417              3207.5513
 Red. masses --      1.0878                 1.1040                 1.0949
 Frc consts  --      6.4809                 6.5803                 6.6372
 IR Inten    --      1.3761                16.4512                 6.5249

 - Thermochemistry -
 -------------------
 Temperature   298.150 Kelvin.  Pressure   1.00000 Atm.
 Atom     1 has atomic number  6 and mass  12.00000

 Molecular mass:   219.12325 amu.
 Principal axes and moments of inertia in atomic units:
                           1         2         3
     Eigenvalues --  2525.478084264.669294614.86361
           X            0.99965   0.02613   0.00469
           Y           -0.02581   0.99795  -0.05864
           Z           -0.00621   0.05850   0.99827
 This molecule is an asymmetric top.
 Rotational symmetry number  1.
 Warning -- assumption of classical behavior for rotation
           may cause significant error
 Rotational temperatures (Kelvin)      0.03430     0.02031     0.01877
 Rotational constants (GHZ):           0.71461     0.42318     0.39107
 Zero-point vibrational energy     773607.7 (Joules/Mol)
                                  184.89668 (Kcal/Mol)
 Warning -- explicit consideration of  27 degrees of freedom as
           vibrations may cause significant error
 Vibrational temperatures:     53.68    69.45    84.04   128.53   144.48
          (Kelvin)            160.71   205.93   235.62   239.52   270.90
                              273.77   300.98   332.32   361.92   380.32
                              405.07   421.53   475.64   562.13   568.92
                              592.90   661.79   672.21   727.28   766.20
                              819.91   864.11  1042.50  1124.17  1199.06
                             1313.97  1353.22  1375.58  1382.02  1451.39
                             1463.67  1508.13  1539.11  1546.32  1596.14
                             1626.76  1663.51  1670.14  1687.42  1701.43
                             1704.02  1712.74  1716.83  1752.82  1757.98
                             1765.31  1771.11  1776.51  1844.61  1878.51
                             1911.69  1921.23  1941.86  1967.31  2017.04
                             2025.49  2052.48  2056.00  2154.75  2159.29
                             2159.66  2162.47  2175.54  2180.11  2182.39
                             2191.73  2197.20  2200.89  2203.03  2210.69
                             2214.53  2360.63  4258.44  4349.07  4360.94
                             4369.20  4371.27  4379.41  4387.29  4433.57
                             4448.55  4468.94  4482.44  4485.27  4503.67
                             4549.98  4560.03  4561.85  4575.31  4576.23
                             4614.95

 Zero-point correction=                           0.294652 (Hartree/Particle)
 Thermal correction to Energy=                    0.311707
 Thermal correction to Enthalpy=                  0.312651
 Thermal correction to Gibbs Free Energy=         0.249777
 Sum of electronic and zero-point Energies=           -768.021141
 Sum of electronic and thermal Energies=              -768.004086
 Sum of electronic and thermal Enthalpies=            -768.003142
 Sum of electronic and thermal Free Energies=         -768.066015

                     E (Thermal)             CV                S
                      KCal/Mol        Cal/Mol-Kelvin    Cal/Mol-Kelvin
 Total                  195.599             61.569            132.328
 Electronic               0.000              0.000              0.000
 Translational            0.889              2.981             42.056
 Rotational               0.889              2.981             32.275
 Vibrational            193.821             55.607             57.997
 Vibration     1          0.594              1.982              5.397
 Vibration     2          0.595              1.978              4.887
 Vibration     3          0.596              1.974              4.510
 Vibration     4          0.602              1.957              3.675
 Vibration     5          0.604              1.949              3.446
 Vibration     6          0.607              1.940              3.239
 Vibration     7          0.616              1.910              2.762
 Vibration     8          0.623              1.887              2.506
 Vibration     9          0.624              1.884              2.475
 Vibration    10          0.633              1.856              2.245
 Vibration    11          0.634              1.853              2.225
 Vibration    12          0.642              1.827              2.051
 Vibration    13          0.653              1.794              1.871
 Vibration    14          0.664              1.760              1.720
 Vibration    15          0.671              1.738              1.633
 Vibration    16          0.681              1.708              1.524
 Vibration    17          0.688              1.687              1.457
 Vibration    18          0.713              1.614              1.257
 Vibration    19          0.758              1.490              0.997
 Vibration    20          0.762              1.480              0.980
 Vibration    21          0.776              1.444              0.919
 Vibration    22          0.818              1.339              0.766
 Vibration    23          0.824              1.323              0.745
 Vibration    24          0.861              1.238              0.645
 Vibration    25          0.888              1.178              0.582
 Vibration    26          0.926              1.096              0.504
 Vibration    27          0.959              1.031              0.449

                           ! Non-Optimized Parameters !
 Normal termination of Gaussian 16 at Fri May 24 08:53:20 2019.
