 Gaussian 16, Revision A.03,
 Gaussian 16:  ES64L-G16RevA.03 25-Dec-2016

 -------------------------------------------------------------------
 #p b3lyp 6-31g* opt freq=noraman scrf=(pcm,solvent=tetrahydrofuran)
 -------------------------------------------------------------------

 -----
 title
 -----
 Symbolic Z-matrix:
 Charge =  1 Multiplicity = 1

 SCF Done:  E(RB3LYP) =  -768.328739530     A.U. after   13 cycles
 Optimization completed.
    -- Stationary point found.
 Normal termination of Gaussian 16 at Fri May 24 08:34:33 2019.

 --------------------------------------------------------------------
 #P Geom=AllCheck Guess=TCheck SCRF=Check GenChk RB3LYP/6-31G(d) Freq
 --------------------------------------------------------------------

 Structure from the checkpoint file:  "/scratch/Gau-167781.chk"
 -----
 title
 -----
 Charge =  1 Multiplicity = 1

                         Standard orientation:
 ---------------------------------------------------------------------
 Center     Atomic      Atomic             Coordinates (Angstroms)
 Number     Number       Type             X           Y           Z
 ---------------------------------------------------------------------
      1          6           0       -1.086243    0.557563    0.670071
      2          6           0       -1.774196   -0.828780    0.652296
      3          6           0       -0.660364   -1.762610    1.055109
      4          6           0        0.650324   -0.778669   -0.706705
      5          6           0        0.059182    0.610818   -0.371237
      6          1           0       -0.718076   -2.479335    1.874139
      7          1           0       -2.580914   -0.864143    1.392476
      8          1           0       -1.810569    1.351781    0.449864
      9          1           0        0.091941   -1.213605   -1.533986
     10          1           0        0.864034    1.235761    0.032394
     11          8           0        0.427636   -1.753999    0.435793
     12          8           0       -2.178723   -1.291330   -0.614438
     13          8           0       -0.606610    0.627681    2.002592
     14          8           0       -0.385821    1.100068   -1.622871
     15          6           0        2.138033   -0.804827   -0.965331
     16          1           0        2.312988   -0.216387   -1.880821
     17          1           0        2.462502   -1.837528   -1.163491
     18          8           0        2.799228   -0.257477    0.150020
     19          6           0       -3.364526   -0.660598   -1.122450
     20          1           0       -3.642363   -1.228529   -2.010989
     21          1           0       -4.175093   -0.708119   -0.385880
     22          1           0       -3.165959    0.379293   -1.399681
     23          6           0       -0.312244    1.939282    2.488088
     24          1           0       -1.203659    2.576965    2.435154
     25          1           0       -0.009876    1.819195    3.529378
     26          1           0        0.505183    2.409038    1.928096
     27          6           0       -0.264572    2.515480   -1.773688
     28          1           0        0.781146    2.833044   -1.672952
     29          1           0       -0.620812    2.747264   -2.778754
     30          1           0       -0.876752    3.058253   -1.042016
     31          6           0        4.213378   -0.225735   -0.006468
     32          1           0        4.622095   -1.237429   -0.136574
     33          1           0        4.620823    0.213761    0.905889
     34          1           0        4.505059    0.389641   -0.869114
 ---------------------------------------------------------------------

 SCF Done:  E(RB3LYP) =  -768.328739530     A.U. after    1 cycles

 The electronic state is 1-A.
 Alpha  occ. eigenvalues --  -19.32791 -19.20982 -19.19937 -19.19280 -19.18336
 Alpha  occ. eigenvalues --  -10.39683 -10.31478 -10.31189 -10.29207 -10.29060
 Alpha  occ. eigenvalues --  -10.27466 -10.25883 -10.25557 -10.25223 -10.24623
 Alpha  occ. eigenvalues --   -1.21665  -1.09455  -1.07970  -1.07182  -1.06586
 Alpha  occ. eigenvalues --   -0.86787  -0.85232  -0.77014  -0.74552  -0.73928
 Alpha  occ. eigenvalues --   -0.69959  -0.69339  -0.67940  -0.66249  -0.61428
 Alpha  occ. eigenvalues --   -0.59882  -0.58170  -0.57088  -0.54303  -0.53343
 Alpha  occ. eigenvalues --   -0.51809  -0.50902  -0.50363  -0.50057  -0.49569
 Alpha  occ. eigenvalues --   -0.48331  -0.47631  -0.46673  -0.46134  -0.45634
 Alpha  occ. eigenvalues --   -0.43561  -0.43008  -0.42210  -0.41979  -0.40384
 Alpha  occ. eigenvalues --   -0.39527  -0.37379  -0.36319  -0.36033  -0.35047
 Alpha  occ. eigenvalues --   -0.32039  -0.31070  -0.28992  -0.28261
 Alpha virt. eigenvalues --   -0.15185   0.00731   0.04234   0.05700   0.06405
 Alpha virt. eigenvalues --    0.07282   0.07899   0.09871   0.10488   0.11079
 Alpha virt. eigenvalues --    0.11365   0.11928   0.12592   0.13002   0.13335

 Mulliken charges:
               1
     1  C    0.061033
     2  C    0.065741
     3  C    0.311018
     4  C    0.048865
     5  C    0.118981
     6  H    0.280014
     7  H    0.210716
     8  H    0.193662
     9  H    0.252535
    10  H    0.193806
    11  O   -0.292123
    12  O   -0.487514
    13  O   -0.493856
    14  O   -0.488317
    15  C   -0.037867
    16  H    0.179261
    17  H    0.176224
    18  O   -0.478818
    19  C   -0.223512
    20  H    0.193955
    21  H    0.171347
    22  H    0.176029
    23  C   -0.222591
    24  H    0.168306
    25  H    0.189222
    26  H    0.167222
    27  C   -0.224969
    28  H    0.165615
    29  H    0.185843
    30  H    0.159804
    31  C   -0.210547
    32  H    0.156819
    33  H    0.177876
    34  H    0.156222
 Sum of Mulliken charges =   1.00000

 Dipole moment (field-independent basis, Debye):
    X=             -1.7955    Y=             -0.8280    Z=              1.0659  Tot=              2.2462
 Quadrupole moment (field-independent basis, Debye-Ang):
   XX=            -60.1810   YY=            -67.8948   ZZ=            -76.9587
   XY=              0.5801   XZ=             -5.1827   YZ=             -2.6997

  Exact polarizability: 151.171   2.538 134.919  -0.277  -2.896 140.319
 Approx polarizability: 160.780   0.637 153.829  -0.927  -2.798 163.212

                      1                      2                      3
                      A                      A                      A
 Frequencies --     43.5716                57.1790                72.2578
 Red. masses --      3.9134                 2.9340                 2.8504
 Frc consts  --      0.0044                 0.0057                 0.0088
 IR Inten    --      1.0861                 2.0533                 1.7072

                      4                      5                      6
                      A                      A                      A
 Frequencies --     79.3659                90.6643               101.0930
 Red. masses --      2.6770                 2.5216                 2.5023
 Frc consts  --      0.0099                 0.0122                 0.0151
 IR Inten    --      1.4599                 3.4930                10.1048

                      7                      8                      9
                      A                      A                      A
 Frequencies --    108.5826               128.7158               142.5512
 Red. masses --      2.3918                 2.2442                 2.2504
 Frc consts  --      0.0166                 0.0219                 0.0269
 IR Inten    --      7.3320                 4.3404                 6.4011

                     10                     11                     12
                      A                      A                      A
 Frequencies --    176.2555               179.7854               198.7214
 Red. masses --      1.8681                 1.3253                 1.8437
 Frc consts  --      0.0342                 0.0252                 0.0429
 IR Inten    --      4.2552                 0.3246                 4.5965

                     13                     14                     15
                      A                      A                      A
 Frequencies --    222.3720               227.1678               247.7862
 Red. masses --      2.1748                 1.5329                 3.0557
 Frc consts  --      0.0634                 0.0466                 0.1105
 IR Inten    --      4.0307                 7.0695                 2.2792

                     16                     17                     18
                      A                      A                      A
 Frequencies --    276.2872               297.1258               303.2824
 Red. masses --      2.7669                 2.7833                 3.6777
 Frc consts  --      0.1244                 0.1448                 0.1993
 IR Inten    --     21.7748                 3.6224                 5.4847

                     19                     20                     21
                      A                      A                      A
 Frequencies --    363.6216               371.0685               401.4102
 Red. masses --      3.5893                 3.3608                 3.5032
 Frc consts  --      0.2796                 0.2726                 0.3326
 IR Inten    --     14.2518                12.2529                16.0772

                     22                     23                     24
                      A                      A                      A
 Frequencies --    434.7890               442.6869               498.4944
 Red. masses --      3.7171                 4.2973                 5.9451
 Frc consts  --      0.4140                 0.4962                 0.8704
 IR Inten    --      3.5162                18.1469                 4.7349

                     25                     26                     27
                      A                      A                      A
 Frequencies --    556.4459               617.3208               652.5934
 Red. masses --      4.7493                 4.2243                 4.4545
 Frc consts  --      0.8664                 0.9485                 1.1177
 IR Inten    --     32.3761                 9.3023                24.9266

                     28                     29                     30
                      A                      A                      A
 Frequencies --    742.4732               855.2890               877.2764
 Red. masses --      4.5697                 3.5605                 3.0546
 Frc consts  --      1.4842                 1.5346                 1.3851
 IR Inten    --     45.9144                26.3785                 8.3070

                     31                     32                     33
                      A                      A                      A
 Frequencies --    898.3222               944.2895               959.3240
 Red. masses --      3.1660                 2.9012                 4.6516
 Frc consts  --      1.5053                 1.5242                 2.5222
 IR Inten    --      6.1366                 6.7481                 6.0945

                     34                     35                     36
                      A                      A                      A
 Frequencies --    969.6470              1019.8918              1035.7323
 Red. masses --      2.9972                 3.6890                 2.1467
 Frc consts  --      1.6603                 2.2608                 1.3568
 IR Inten    --     34.7543                30.9051                 4.1890

                     37                     38                     39
                      A                      A                      A
 Frequencies --   1054.1357              1061.9707              1095.2678
 Red. masses --      3.1244                 2.7772                 1.8484
 Frc consts  --      2.0456                 1.8454                 1.3065
 IR Inten    --    136.8044                61.0646                 5.0380

                     40                     41                     42
                      A                      A                      A
 Frequencies --   1129.0571              1135.7101              1138.4768
 Red. masses --      4.9178                 5.1105                 3.0446
 Frc consts  --      3.6936                 3.8838                 2.3250
 IR Inten    --     62.9381               207.1905                50.0353

                     43                     44                     45
                      A                      A                      A
 Frequencies --   1148.1465              1169.5221              1182.4333
 Red. masses --      4.3245                 2.4019                 1.2950
 Frc consts  --      3.3588                 1.9356                 1.0668
 IR Inten    --    372.3607                68.8586                 4.1109

                     46                     47                     48
                      A                      A                      A
 Frequencies --   1185.8343              1188.5658              1190.8037
 Red. masses --      1.2754                 1.2693                 1.2718
 Frc consts  --      1.0567                 1.0565                 1.0625
 IR Inten    --      1.5378                 2.8202                 2.3233

                     49                     50                     51
                      A                      A                      A
 Frequencies --   1218.8865              1223.2806              1229.0891
 Red. masses --      1.4565                 1.5688                 1.6945
 Frc consts  --      1.2749                 1.3831                 1.5082
 IR Inten    --     41.7107                21.7365                19.5664

                     52                     53                     54
                      A                      A                      A
 Frequencies --   1234.2776              1257.3671              1283.7337
 Red. masses --      1.6882                 1.4955                 1.2071
 Frc consts  --      1.5153                 1.3931                 1.1720
 IR Inten    --     29.1613                33.7455                21.0497

                     55                     56                     57
                      A                      A                      A
 Frequencies --   1311.7625              1337.8456              1340.5673
 Red. masses --      1.2786                 1.1575                 1.3501
 Frc consts  --      1.2963                 1.2207                 1.4296
 IR Inten    --     14.6823                 5.0601                21.7770

                     58                     59                     60
                      A                      A                      A
 Frequencies --   1362.0531              1380.3330              1407.1213
 Red. masses --      1.2118                 1.3258                 1.5167
 Frc consts  --      1.3246                 1.4884                 1.7694
 IR Inten    --     16.8489                15.5462                13.4343

                     61                     62                     63
                      A                      A                      A
 Frequencies --   1417.1745              1433.7547              1442.4150
 Red. masses --      1.3686                 1.4484                 1.4553
 Frc consts  --      1.6195                 1.7542                 1.7840
 IR Inten    --     35.9554                20.7837                28.2658

                     64                     65                     66
                      A                      A                      A
 Frequencies --   1496.0852              1497.9719              1499.3283
 Red. masses --      1.1315                 1.1155                 1.1250
 Frc consts  --      1.4922                 1.4748                 1.4901
 IR Inten    --      1.7062                 5.0639                 0.7617

                     67                     68                     69
                      A                      A                      A
 Frequencies --   1500.5637              1510.7310              1512.5621
 Red. masses --      1.1420                 1.0465                 1.0635
 Frc consts  --      1.5151                 1.4072                 1.4335
 IR Inten    --      2.3382                 9.3811                 7.8257

                     70                     71                     72
                      A                      A                      A
 Frequencies --   1516.5520              1518.1741              1521.8246
 Red. masses --      1.0648                 1.0626                 1.0592
 Frc consts  --      1.4429                 1.4429                 1.4453
 IR Inten    --      5.5922                15.1425                15.9331

                     73                     74                     75
                      A                      A                      A
 Frequencies --   1523.8066              1525.6245              1530.2982
 Red. masses --      1.0526                 1.0549                 1.0604
 Frc consts  --      1.4401                 1.4466                 1.4631
 IR Inten    --     34.2576                 1.9743                 7.2765

                     76                     77                     78
                      A                      A                      A
 Frequencies --   1539.7468              1661.2511              3008.4928
 Red. masses --      1.0985                 7.0466                 1.0566
 Frc consts  --      1.5344                11.4578                 5.6346
 IR Inten    --      5.8555               161.3560                34.1545

                     79                     80                     81
                      A                      A                      A
 Frequencies --   3021.4776              3032.7241              3040.6189
 Red. masses --      1.0362                 1.0341                 1.0335
 Frc consts  --      5.5737                 5.6039                 5.6295
 IR Inten    --     71.0012                51.4740                48.0848

                     82                     83                     84
                      A                      A                      A
 Frequencies --   3047.0975              3053.7649              3070.6484
 Red. masses --      1.1039                 1.0333                 1.0847
 Frc consts  --      6.0390                 5.6772                 6.0260
 IR Inten    --     51.2248                39.3078                27.3288

                     85                     86                     87
                      A                      A                      A
 Frequencies --   3076.4940              3081.8040              3094.6971
 Red. masses --      1.1067                 1.0866                 1.1035
 Frc consts  --      6.1715                 6.0804                 6.2265
 IR Inten    --     50.9688                14.9986                38.2629

                     88                     89                     90
                      A                      A                      A
 Frequencies --   3096.5875              3104.7869              3128.7651
 Red. masses --      1.0874                 1.1065                 1.1064
 Frc consts  --      6.1433                 6.2845                 6.3813
 IR Inten    --     35.9418                45.9574                31.5674

                     91                     92                     93
                      A                      A                      A
 Frequencies --   3158.7952              3165.9767              3170.2501
 Red. masses --      1.0998                 1.1007                 1.1017
 Frc consts  --      6.4655                 6.5003                 6.5237
 IR Inten    --     26.7305                24.0661                20.3833

                     94                     95                     96
                      A                      A                      A
 Frequencies --   3178.0138              3181.7977              3211.8904
 Red. masses --      1.1037                 1.0867                 1.0957
 Frc consts  --      6.5676                 6.4821                 6.6600
 IR Inten    --     15.1484                 1.6859                 1.4340

 - Thermochemistry -
 -------------------
 Temperature   298.150 Kelvin.  Pressure   1.00000 Atm.
 Atom     1 has atomic number  6 and mass  12.00000

 Molecular mass:   219.12325 amu.
 Principal axes and moments of inertia in atomic units:
                           1         2         3
     Eigenvalues --  2493.900694110.617664177.78629
           X            0.99997  -0.00673  -0.00270
           Y            0.00709   0.98588   0.16733
           Z            0.00153  -0.16734   0.98590
 This molecule is an asymmetric top.
 Rotational symmetry number  1.
 Warning -- assumption of classical behavior for rotation
           may cause significant error
 Rotational temperatures (Kelvin)      0.03473     0.02107     0.02073
 Rotational constants (GHZ):           0.72366     0.43904     0.43199
 Zero-point vibrational energy     774176.7 (Joules/Mol)
                                  185.03266 (Kcal/Mol)
 Warning -- explicit consideration of  26 degrees of freedom as
           vibrations may cause significant error
 Vibrational temperatures:     62.69    82.27   103.96   114.19   130.45
          (Kelvin)            145.45   156.23   185.19   205.10   253.59
                              258.67   285.92   319.94   326.84   356.51
                              397.52   427.50   436.36   523.17   533.88
                              577.54   625.56   636.93   717.22   800.60
                              888.19   938.94  1068.25  1230.57  1262.21
                             1292.49  1358.62  1380.25  1395.11  1467.40
                             1490.19  1516.67  1527.94  1575.85  1624.46
                             1634.03  1638.01  1651.93  1682.68  1701.26
                             1706.15  1710.08  1713.30  1753.71  1760.03
                             1768.39  1775.85  1809.07  1847.01  1887.33
                             1924.86  1928.78  1959.69  1985.99  2024.53
                             2039.00  2062.85  2075.31  2152.53  2155.25
                             2157.20  2158.98  2173.60  2176.24  2181.98
                             2184.31  2189.57  2192.42  2195.03  2201.76
                             2215.35  2390.17  4328.55  4347.23  4363.41
                             4374.77  4384.09  4393.69  4417.98  4426.39
                             4434.03  4452.58  4455.30  4467.10  4501.60
                             4544.80  4555.13  4561.28  4572.45  4577.90
                             4621.19

 Zero-point correction=                           0.294868 (Hartree/Particle)
 Thermal correction to Energy=                    0.312241
 Thermal correction to Enthalpy=                  0.313185
 Thermal correction to Gibbs Free Energy=         0.249548
 Sum of electronic and zero-point Energies=           -768.033871
 Sum of electronic and thermal Energies=              -768.016498
 Sum of electronic and thermal Enthalpies=            -768.015554
 Sum of electronic and thermal Free Energies=         -768.079191

                     E (Thermal)             CV                S
                      KCal/Mol        Cal/Mol-Kelvin    Cal/Mol-Kelvin
 Total                  195.934             61.552            133.935
 Electronic               0.000              0.000              0.000
 Translational            0.889              2.981             42.056
 Rotational               0.889              2.981             32.127
 Vibrational            194.157             55.590             59.752
 Vibration     1          0.595              1.980              5.090
 Vibration     2          0.596              1.975              4.552
 Vibration     3          0.598              1.967              4.091
 Vibration     4          0.600              1.963              3.906
 Vibration     5          0.602              1.956              3.646
 Vibration     6          0.604              1.948              3.433
 Vibration     7          0.606              1.942              3.294
 Vibration     8          0.611              1.925              2.965
 Vibration     9          0.616              1.911              2.769
 Vibration    10          0.628              1.872              2.368
 Vibration    11          0.629              1.867              2.331
 Vibration    12          0.637              1.842              2.145
 Vibration    13          0.648              1.807              1.940
 Vibration    14          0.651              1.800              1.901
 Vibration    15          0.661              1.766              1.746
 Vibration    16          0.678              1.717              1.557
 Vibration    17          0.691              1.679              1.433
 Vibration    18          0.695              1.667              1.399
 Vibration    19          0.737              1.547              1.107
 Vibration    20          0.743              1.532              1.075
 Vibration    21          0.767              1.467              0.957
 Vibration    22          0.795              1.394              0.843
 Vibration    23          0.802              1.377              0.818
 Vibration    24          0.854              1.253              0.662
 Vibration    25          0.912              1.126              0.531
 Vibration    26          0.977              0.995              0.421

                           ! Non-Optimized Parameters !
 Normal termination of Gaussian 16 at Fri May 24 08:54:53 2019.
