 Gaussian 16, Revision A.03,
 Gaussian 16:  ES64L-G16RevA.03 25-Dec-2016

 ----------------------------------------------------------------------
 #p b3lyp 6-31g* opt=(maxstep=1,calcfc) freq=noraman scrf=(pcm,solvent=
 tetrahydrofuran)
 ----------------------------------------------------------------------

 -----
 title
 -----
 Symbolic Z-matrix:
 Charge =  1 Multiplicity = 1

 SCF Done:  E(RB3LYP) =  -768.319094583     A.U. after   14 cycles
 Optimization completed.
    -- Stationary point found.
 Normal termination of Gaussian 16 at Sat May 25 18:25:03 2019.

 --------------------------------------------------------------------
 #P Geom=AllCheck Guess=TCheck SCRF=Check GenChk RB3LYP/6-31G(d) Freq
 --------------------------------------------------------------------

 Structure from the checkpoint file:  "/scratch/Gau-119058.chk"
 -----
 title
 -----
 Charge =  1 Multiplicity = 1

                         Standard orientation:
 ---------------------------------------------------------------------
 Center     Atomic      Atomic             Coordinates (Angstroms)
 Number     Number       Type             X           Y           Z
 ---------------------------------------------------------------------
      1          6           0        0.978976    0.532475    0.390923
      2          6           0        1.693686   -0.790170   -0.033655
      3          6           0        0.948355   -1.945872    0.534828
      4          6           0       -1.211995   -0.822253    0.429150
      5          6           0       -0.495514    0.461688   -0.052733
      6          1           0        1.485454   -2.844483    0.841861
      7          1           0        1.644505   -0.896235   -1.134002
      8          1           0        1.050029    0.578488    1.481475
      9          1           0       -1.713355   -0.651675    1.381466
     10          1           0       -0.534411    0.462775   -1.145291
     11          8           0       -0.284531   -1.956687    0.778634
     12          8           0        2.998911   -0.882731    0.456692
     13          8           0        1.668931    1.668637   -0.055116
     14          8           0       -1.268077    1.584670    0.320782
     15          6           0       -2.161349   -1.447021   -0.623726
     16          1           0       -2.724229   -2.269075   -0.160638
     17          1           0       -1.546964   -1.857082   -1.432659
     18          8           0       -3.000687   -0.487434   -1.202666
     19          6           0        4.041317   -0.632061   -0.496915
     20          1           0        4.977604   -0.790579    0.039376
     21          1           0        3.980850   -1.331342   -1.339457
     22          1           0        3.996823    0.399902   -0.858060
     23          6           0        1.510461    2.061216   -1.422851
     24          1           0        1.734105    1.243049   -2.120113
     25          1           0        0.502897    2.443528   -1.613862
     26          1           0        2.235152    2.861174   -1.580829
     27          6           0       -1.111537    2.085158    1.653409
     28          1           0       -1.261035    1.308168    2.414913
     29          1           0       -0.129462    2.549075    1.790832
     30          1           0       -1.887344    2.843091    1.771241
     31          6           0       -4.110631   -0.090727   -0.395736
     32          1           0       -4.752718    0.515238   -1.037622
     33          1           0       -4.672089   -0.965598   -0.042008
     34          1           0       -3.792795    0.515341    0.460610
 ---------------------------------------------------------------------

 SCF Done:  E(RB3LYP) =  -768.319094583     A.U. after    1 cycles

 The electronic state is 1-A.
 Alpha  occ. eigenvalues --  -19.33353 -19.20747 -19.19781 -19.19544 -19.18861
 Alpha  occ. eigenvalues --  -10.39746 -10.32120 -10.32056 -10.29928 -10.29677
 Alpha  occ. eigenvalues --  -10.28166 -10.25838 -10.25462 -10.25281 -10.24661
 Alpha  occ. eigenvalues --   -1.21951  -1.09822  -1.08287  -1.07064  -1.06427
 Alpha  occ. eigenvalues --   -0.87108  -0.86081  -0.77323  -0.75828  -0.74464
 Alpha  occ. eigenvalues --   -0.71549  -0.69168  -0.67876  -0.65517  -0.62289
 Alpha  occ. eigenvalues --   -0.60436  -0.59266  -0.55835  -0.55026  -0.54000
 Alpha  occ. eigenvalues --   -0.52855  -0.51952  -0.51213  -0.50324  -0.49195
 Alpha  occ. eigenvalues --   -0.48388  -0.47810  -0.46661  -0.45980  -0.45187
 Alpha  occ. eigenvalues --   -0.44336  -0.43222  -0.42842  -0.41477  -0.41010
 Alpha  occ. eigenvalues --   -0.40542  -0.37229  -0.36341  -0.34892  -0.34401
 Alpha  occ. eigenvalues --   -0.32501  -0.30673  -0.29804  -0.28398
 Alpha virt. eigenvalues --   -0.15464  -0.00790   0.04105   0.04720   0.05546
 Alpha virt. eigenvalues --    0.07058   0.08302   0.08594   0.09301   0.10616
 Alpha virt. eigenvalues --    0.10709   0.11872   0.12344   0.12444   0.13211

 Mulliken charges:
               1
     1  C    0.110423
     2  C    0.025024
     3  C    0.297134
     4  C    0.037608
     5  C    0.092762
     6  H    0.281068
     7  H    0.234193
     8  H    0.194407
     9  H    0.236488
    10  H    0.197721
    11  O   -0.307014
    12  O   -0.475978
    13  O   -0.472611
    14  O   -0.478001
    15  C   -0.042044
    16  H    0.181046
    17  H    0.183500
    18  O   -0.457482
    19  C   -0.232500
    20  H    0.193492
    21  H    0.170635
    22  H    0.181184
    23  C   -0.245363
    24  H    0.157681
    25  H    0.182323
    26  H    0.192189
    27  C   -0.242263
    28  H    0.158259
    29  H    0.178106
    30  H    0.190275
    31  C   -0.224518
    32  H    0.182638
    33  H    0.158234
    34  H    0.161385
 Sum of Mulliken charges =   1.00000

 Dipole moment (field-independent basis, Debye):
    X=              1.6404    Y=             -5.1800    Z=              0.7637  Tot=              5.4870
 Quadrupole moment (field-independent basis, Debye-Ang):
   XX=            -63.5730   YY=            -72.3644   ZZ=            -80.5734
   XY=             -3.6428   XZ=            -12.1847   YZ=             -0.7590

  Exact polarizability: 174.718  -3.426 148.311  -6.335  -4.182 119.323
 Approx polarizability: 184.927  -1.807 171.925  -3.431  -7.667 148.376

                      1                      2                      3
                      A                      A                      A
 Frequencies --     34.3679                71.9962                79.8078
 Red. masses --      4.4207                 2.9008                 2.9602
 Frc consts  --      0.0031                 0.0089                 0.0111
 IR Inten    --      2.8076                 1.6135                 6.2519

                      4                      5                      6
                      A                      A                      A
 Frequencies --     83.5355               110.3766               130.5948
 Red. masses --      3.2032                 3.0049                 2.7171
 Frc consts  --      0.0132                 0.0216                 0.0273
 IR Inten    --      0.9060                 1.1087                 3.3655

                      7                      8                      9
                      A                      A                      A
 Frequencies --    141.6404               156.8845               170.4752
 Red. masses --      2.1964                 2.2976                 1.4874
 Frc consts  --      0.0260                 0.0333                 0.0255
 IR Inten    --      8.9496                 2.8799                 3.4010

                     10                     11                     12
                      A                      A                      A
 Frequencies --    186.6593               190.5076               207.5268
 Red. masses --      1.8775                 1.8069                 1.2586
 Frc consts  --      0.0385                 0.0386                 0.0319
 IR Inten    --      0.1711                 1.2480                 2.1478

                     13                     14                     15
                      A                      A                      A
 Frequencies --    218.4778               246.6964               255.0845
 Red. masses --      1.8007                 2.0996                 3.0979
 Frc consts  --      0.0506                 0.0753                 0.1188
 IR Inten    --      0.9029                 6.2604                 6.1167

                     16                     17                     18
                      A                      A                      A
 Frequencies --    275.4131               294.8519               339.6440
 Red. masses --      3.6521                 3.5553                 3.5503
 Frc consts  --      0.1632                 0.1821                 0.2413
 IR Inten    --     16.7589                 1.7269                10.3119

                     19                     20                     21
                      A                      A                      A
 Frequencies --    388.8921               411.8652               421.0720
 Red. masses --      3.4315                 4.0305                 4.1445
 Frc consts  --      0.3058                 0.4028                 0.4329
 IR Inten    --      1.6114                14.6809                 3.7694

                     22                     23                     24
                      A                      A                      A
 Frequencies --    453.8698               458.3097               493.8093
 Red. masses --      3.1189                 3.9287                 4.3994
 Frc consts  --      0.3785                 0.4862                 0.6321
 IR Inten    --     23.2630                17.4428                13.9259

                     25                     26                     27
                      A                      A                      A
 Frequencies --    519.9990               567.7255               609.5282
 Red. masses --      4.2587                 3.4914                 3.2029
 Frc consts  --      0.6785                 0.6630                 0.7011
 IR Inten    --     13.3130                15.6999                22.9578

                     28                     29                     30
                      A                      A                      A
 Frequencies --    715.3428               800.4298               837.6901
 Red. masses --      3.7473                 5.6175                 2.1243
 Frc consts  --      1.1298                 2.1205                 0.8783
 IR Inten    --     72.3300                48.6052                24.6551

                     31                     32                     33
                      A                      A                      A
 Frequencies --    905.4139               928.3460               954.2222
 Red. masses --      3.1743                 3.4012                 4.1719
 Frc consts  --      1.5332                 1.7271                 2.2381
 IR Inten    --     25.9485                16.4928                43.9533

                     34                     35                     36
                      A                      A                      A
 Frequencies --    966.2433               993.3823              1042.8324
 Red. masses --      3.7712                 4.7735                 3.6437
 Frc consts  --      2.0744                 2.7753                 2.3347
 IR Inten    --     65.1217                 6.9971                56.3953

                     37                     38                     39
                      A                      A                      A
 Frequencies --   1056.1946              1074.3205              1109.2663
 Red. masses --      3.0328                 2.8558                 2.3648
 Frc consts  --      1.9933                 1.9420                 1.7144
 IR Inten    --     25.1279               101.2203                19.9600

                     40                     41                     42
                      A                      A                      A
 Frequencies --   1126.1268              1140.5794              1150.1445
 Red. masses --      3.2441                 3.3489                 2.7455
 Frc consts  --      2.4239                 2.5669                 2.1398
 IR Inten    --     26.8214                60.4761               226.3380

                     43                     44                     45
                      A                      A                      A
 Frequencies --   1165.0700              1172.8480              1176.2536
 Red. masses --      3.3307                 2.3985                 1.2694
 Frc consts  --      2.6638                 1.9439                 1.0348
 IR Inten    --    158.5764                83.0963                 1.4588

                     46                     47                     48
                      A                      A                      A
 Frequencies --   1185.3042              1190.5794              1192.2822
 Red. masses --      1.3228                 1.4821                 1.3076
 Frc consts  --      1.0950                 1.2378                 1.0952
 IR Inten    --      7.9941                24.3837                 8.7357

                     49                     50                     51
                      A                      A                      A
 Frequencies --   1223.7127              1228.8249              1232.4984
 Red. masses --      1.9261                 1.7752                 1.5789
 Frc consts  --      1.6993                 1.5794                 1.4131
 IR Inten    --    126.5544               120.8760                19.3547

                     52                     53                     54
                      A                      A                      A
 Frequencies --   1233.2559              1247.9244              1294.5363
 Red. masses --      1.5607                 1.5832                 1.3960
 Frc consts  --      1.3986                 1.4526                 1.3784
 IR Inten    --     74.5333                 1.5457                46.4986

                     55                     56                     57
                      A                      A                      A
 Frequencies --   1310.5894              1327.3386              1355.6476
 Red. masses --      1.2537                 1.2078                 1.2057
 Frc consts  --      1.2687                 1.2538                 1.3055
 IR Inten    --     17.7253                20.6652                 2.2434

                     58                     59                     60
                      A                      A                      A
 Frequencies --   1370.3029              1393.6194              1401.7807
 Red. masses --      1.2721                 1.3487                 1.3321
 Frc consts  --      1.4073                 1.5433                 1.5422
 IR Inten    --      5.0810                 5.7289                16.1292

                     61                     62                     63
                      A                      A                      A
 Frequencies --   1419.4831              1431.3646              1452.9579
 Red. masses --      1.2871                 1.2249                 1.1746
 Frc consts  --      1.5280                 1.4786                 1.4610
 IR Inten    --     51.4412                 4.1584                17.2509

                     64                     65                     66
                      A                      A                      A
 Frequencies --   1498.4382              1499.0768              1499.2809
 Red. masses --      1.1291                 1.1405                 1.1484
 Frc consts  --      1.4937                 1.5101                 1.5209
 IR Inten    --      2.8281                 0.1208                 0.7997

                     67                     68                     69
                      A                      A                      A
 Frequencies --   1505.3348              1513.4401              1514.3271
 Red. masses --      1.1288                 1.0530                 1.0652
 Frc consts  --      1.5071                 1.4211                 1.4392
 IR Inten    --      1.5769                 5.4787                 8.5379

                     70                     71                     72
                      A                      A                      A
 Frequencies --   1515.4878              1516.3268              1524.2904
 Red. masses --      1.0492                 1.0581                 1.0484
 Frc consts  --      1.4197                 1.4334                 1.4352
 IR Inten    --      6.3452                15.7737                10.9851

                     73                     74                     75
                      A                      A                      A
 Frequencies --   1528.5430              1531.7485              1536.4790
 Red. masses --      1.0571                 1.0839                 1.0481
 Frc consts  --      1.4552                 1.4984                 1.4578
 IR Inten    --      3.7833                 9.9738                10.1344

                     76                     77                     78
                      A                      A                      A
 Frequencies --   1541.4367              1638.9082              2979.1980
 Red. masses --      1.0523                 6.6789                 1.0774
 Frc consts  --      1.4731                10.5698                 5.6340
 IR Inten    --     20.8852               259.3810                19.3853

                     79                     80                     81
                      A                      A                      A
 Frequencies --   3034.6962              3039.7677              3041.3832
 Red. masses --      1.0374                 1.0389                 1.0491
 Frc consts  --      5.6291                 5.6558                 5.7175
 IR Inten    --     49.9829                33.5744                46.7856

                     82                     83                     84
                      A                      A                      A
 Frequencies --   3041.9065              3053.2036              3099.6566
 Red. masses --      1.0447                 1.0337                 1.1054
 Frc consts  --      5.6957                 5.6773                 6.2572
 IR Inten    --     55.6604                50.6569                22.3971

                     85                     86                     87
                      A                      A                      A
 Frequencies --   3102.0298              3105.9889              3113.7979
 Red. masses --      1.1051                 1.0884                 1.0994
 Frc consts  --      6.2654                 6.1863                 6.2807
 IR Inten    --     40.9905                25.5838                30.9824

                     88                     89                     90
                      A                      A                      A
 Frequencies --   3117.3754              3125.5766              3128.9143
 Red. masses --      1.0975                 1.0851                 1.1054
 Frc consts  --      6.2840                 6.2455                 6.3763
 IR Inten    --     50.2057                17.5667                26.7087

                     91                     92                     93
                      A                      A                      A
 Frequencies --   3161.0359              3166.4637              3167.9097
 Red. masses --      1.1010                 1.0885                 1.1019
 Frc consts  --      6.4820                 6.4301                 6.5154
 IR Inten    --     24.6109                 5.7644                18.1922

                     94                     95                     96
                      A                      A                      A
 Frequencies --   3169.8080              3177.9967              3204.8452
 Red. masses --      1.1026                 1.1038                 1.0943
 Frc consts  --      6.5274                 6.5682                 6.6224
 IR Inten    --     18.2224                18.0677                 3.8135

 - Thermochemistry -
 -------------------
 Temperature   298.150 Kelvin.  Pressure   1.00000 Atm.
 Atom     1 has atomic number  6 and mass  12.00000

 Molecular mass:   219.12325 amu.
 Principal axes and moments of inertia in atomic units:
                           1         2         3
     Eigenvalues --  2014.826884392.562365357.92241
           X            0.99982  -0.00005  -0.01901
           Y            0.00032   0.99990   0.01413
           Z            0.01901  -0.01413   0.99972
 This molecule is an asymmetric top.
 Rotational symmetry number  1.
 Warning -- assumption of classical behavior for rotation
           may cause significant error
 Rotational temperatures (Kelvin)      0.04299     0.01972     0.01617
 Rotational constants (GHZ):           0.89573     0.41086     0.33684
 Zero-point vibrational energy     775903.8 (Joules/Mol)
                                  185.44547 (Kcal/Mol)
 Warning -- explicit consideration of  27 degrees of freedom as
           vibrations may cause significant error
 Vibrational temperatures:     49.45   103.59   114.83   120.19   158.81
          (Kelvin)            187.90   203.79   225.72   245.28   268.56
                              274.10   298.58   314.34   354.94   367.01
                              396.26   424.23   488.67   559.53   592.58
                              605.83   653.02   659.41   710.48   748.16
                              816.83   876.98  1029.22  1151.64  1205.25
                             1302.69  1335.68  1372.91  1390.21  1429.26
                             1500.40  1519.63  1545.71  1595.99  1620.25
                             1641.04  1654.80  1676.28  1687.47  1692.37
                             1705.39  1712.98  1715.43  1760.65  1768.00
                             1773.29  1774.38  1795.48  1862.55  1885.65
                             1909.74  1950.47  1971.56  2005.11  2016.85
                             2042.32  2059.41  2090.48  2155.92  2156.84
                             2157.13  2165.84  2177.50  2178.78  2180.45
                             2181.66  2193.11  2199.23  2203.84  2210.65
                             2217.78  2358.02  4286.40  4366.25  4373.55
                             4375.87  4376.63  4392.88  4459.71  4463.13
                             4468.83  4480.06  4485.21  4497.01  4501.81
                             4548.03  4555.84  4557.92  4560.65  4572.43
                             4611.06

 Zero-point correction=                           0.295526 (Hartree/Particle)
 Thermal correction to Energy=                    0.312489
 Thermal correction to Enthalpy=                  0.313433
 Thermal correction to Gibbs Free Energy=         0.251227
 Sum of electronic and zero-point Energies=           -768.023568
 Sum of electronic and thermal Energies=              -768.006606
 Sum of electronic and thermal Enthalpies=            -768.005662
 Sum of electronic and thermal Free Energies=         -768.067867

                     E (Thermal)             CV                S
                      KCal/Mol        Cal/Mol-Kelvin    Cal/Mol-Kelvin
 Total                  196.090             61.456            130.923
 Electronic               0.000              0.000              0.000
 Translational            0.889              2.981             42.056
 Rotational               0.889              2.981             32.228
 Vibrational            194.312             55.495             56.639
 Vibration     1          0.594              1.983              5.560
 Vibration     2          0.598              1.967              4.098
 Vibration     3          0.600              1.963              3.896
 Vibration     4          0.600              1.961              3.806
 Vibration     5          0.606              1.941              3.262
 Vibration     6          0.612              1.923              2.937
 Vibration     7          0.615              1.912              2.782
 Vibration     8          0.621              1.895              2.587
 Vibration     9          0.626              1.879              2.430
 Vibration    10          0.632              1.858              2.261
 Vibration    11          0.634              1.853              2.223
 Vibration    12          0.641              1.829              2.065
 Vibration    13          0.646              1.813              1.972
 Vibration    14          0.661              1.768              1.754
 Vibration    15          0.665              1.754              1.695
 Vibration    16          0.677              1.719              1.562
 Vibration    17          0.689              1.683              1.446
 Vibration    18          0.720              1.596              1.214
 Vibration    19          0.757              1.494              1.004
 Vibration    20          0.776              1.444              0.920
 Vibration    21          0.784              1.424              0.888
 Vibration    22          0.812              1.352              0.784
 Vibration    23          0.816              1.343              0.771
 Vibration    24          0.849              1.264              0.674
 Vibration    25          0.875              1.206              0.610
 Vibration    26          0.924              1.101              0.509
 Vibration    27          0.968              1.012              0.434

 Optimization completed.
    -- Stationary point found.
 Normal termination of Gaussian 16 at Sat May 25 18:44:44 2019.
