 Gaussian 16, Revision A.03,
 Gaussian 16:  ES64L-G16RevA.03 25-Dec-2016

 -------------------------------------------------------------------
 #p b3lyp 6-31g* opt freq=noraman scrf=(pcm,solvent=tetrahydrofuran)
 -------------------------------------------------------------------

 -----
 title
 -----
 Symbolic Z-matrix:
 Charge =  1 Multiplicity = 1

 SCF Done:  E(RB3LYP) =  -768.320382560     A.U. after   14 cycles
 Optimization completed.
    -- Stationary point found.
 Normal termination of Gaussian 16 at Fri May 24 08:33:01 2019.

 --------------------------------------------------------------------
 #P Geom=AllCheck Guess=TCheck SCRF=Check GenChk RB3LYP/6-31G(d) Freq
 --------------------------------------------------------------------

 Structure from the checkpoint file:  "/scratch/Gau-144245.chk"
 -----
 title
 -----
 Charge =  1 Multiplicity = 1

                         Standard orientation:
 ---------------------------------------------------------------------
 Center     Atomic      Atomic             Coordinates (Angstroms)
 Number     Number       Type             X           Y           Z
 ---------------------------------------------------------------------
      1          6           0       -1.093385    0.467763   -0.333718
      2          6           0       -1.839537   -0.809870    0.136193
      3          6           0       -0.955622   -2.014650    0.158040
      4          6           0        1.104033   -0.762497   -0.167193
      5          6           0        0.307967    0.464779    0.322222
      6          1           0       -1.405134   -3.005382    0.235668
      7          1           0       -2.139284   -0.682071    1.194107
      8          1           0       -0.997991    0.390211   -1.421616
      9          1           0        1.244290   -0.771257   -1.250219
     10          1           0        0.202899    0.366030    1.410191
     11          8           0        0.298070   -2.015807    0.064109
     12          8           0       -2.926699   -1.160881   -0.675434
     13          8           0       -1.851754    1.631281   -0.124135
     14          8           0        1.046964    1.644884    0.153963
     15          6           0        2.460018   -0.985903    0.499507
     16          1           0        2.653760   -2.066872    0.578920
     17          1           0        2.467457   -0.561029    1.513992
     18          8           0        3.401336   -0.350287   -0.334477
     19          6           0       -4.216666   -0.754497   -0.188778
     20          1           0       -4.937541   -1.117467   -0.922024
     21          1           0       -4.428719   -1.206267    0.787360
     22          1           0       -4.272520    0.336160   -0.120895
     23          6           0       -1.918871    2.151773    1.208367
     24          1           0       -2.613185    2.991719    1.157661
     25          1           0       -2.312356    1.418790    1.925637
     26          1           0       -0.940610    2.508246    1.544249
     27          6           0        1.231019    2.132402   -1.182921
     28          1           0        0.274395    2.383428   -1.651709
     29          1           0        1.785400    1.420195   -1.803329
     30          1           0        1.825428    3.040841   -1.076107
     31          6           0        4.704864   -0.313972    0.234550
     32          1           0        5.090434   -1.327671    0.412913
     33          1           0        5.346850    0.194678   -0.486950
     34          1           0        4.710183    0.242237    1.182330
 ---------------------------------------------------------------------

 SCF Done:  E(RB3LYP) =  -768.320382560     A.U. after    1 cycles

 The electronic state is 1-A.
 Alpha  occ. eigenvalues --  -19.33566 -19.21043 -19.19674 -19.19545 -19.18348
 Alpha  occ. eigenvalues --  -10.40070 -10.32259 -10.32067 -10.29922 -10.29545
 Alpha  occ. eigenvalues --  -10.27744 -10.25866 -10.25285 -10.24973 -10.24560
 Alpha  occ. eigenvalues --   -1.22096  -1.09775  -1.08394  -1.06784  -1.06347
 Alpha  occ. eigenvalues --   -0.87458  -0.86087  -0.77538  -0.75591  -0.73984
 Alpha  occ. eigenvalues --   -0.71512  -0.68556  -0.67927  -0.65922  -0.62418
 Alpha  occ. eigenvalues --   -0.60699  -0.58963  -0.55733  -0.55327  -0.53489
 Alpha  occ. eigenvalues --   -0.52983  -0.51635  -0.51076  -0.50310  -0.49361
 Alpha  occ. eigenvalues --   -0.48478  -0.47833  -0.46247  -0.45734  -0.45308
 Alpha  occ. eigenvalues --   -0.44259  -0.43119  -0.42233  -0.41545  -0.41154
 Alpha  occ. eigenvalues --   -0.40320  -0.37222  -0.35999  -0.35485  -0.34482
 Alpha  occ. eigenvalues --   -0.32885  -0.30788  -0.28983  -0.28166
 Alpha virt. eigenvalues --   -0.15711  -0.00992   0.04548   0.05212   0.06242
 Alpha virt. eigenvalues --    0.07182   0.07959   0.08689   0.09518   0.10841
 Alpha virt. eigenvalues --    0.11229   0.11642   0.11813   0.12523   0.13435

 Mulliken charges:
               1
     1  C    0.119782
     2  C    0.033125
     3  C    0.303833
     4  C    0.069501
     5  C    0.073955
     6  H    0.281968
     7  H    0.231292
     8  H    0.194443
     9  H    0.241731
    10  H    0.188870
    11  O   -0.317219
    12  O   -0.475626
    13  O   -0.479743
    14  O   -0.472220
    15  C   -0.030366
    16  H    0.174931
    17  H    0.170324
    18  O   -0.477056
    19  C   -0.231935
    20  H    0.193834
    21  H    0.171714
    22  H    0.183722
    23  C   -0.243467
    24  H    0.190149
    25  H    0.155646
    26  H    0.180252
    27  C   -0.240345
    28  H    0.173352
    29  H    0.167531
    30  H    0.188001
    31  C   -0.211710
    32  H    0.155176
    33  H    0.179132
    34  H    0.157420
 Sum of Mulliken charges =   1.00000

 Dipole moment (field-independent basis, Debye):
    X=             -2.2458    Y=             -4.9643    Z=              2.7249  Tot=              6.0920
 Quadrupole moment (field-independent basis, Debye-Ang):
   XX=            -55.8801   YY=            -73.1517   ZZ=            -81.8917
   XY=              3.2757   XZ=             -4.6413   YZ=             -3.0356

  Exact polarizability: 176.828   3.045 147.372  -4.238  -2.242 115.668
 Approx polarizability: 182.090   0.767 169.191  -2.226  -2.179 145.875

                      1                      2                      3
                      A                      A                      A
 Frequencies --     36.7879                51.3042                56.3466
 Red. masses --      3.8459                 3.0146                 3.1101
 Frc consts  --      0.0031                 0.0047                 0.0058
 IR Inten    --      0.7211                 1.1379                 2.5820

                      4                      5                      6
                      A                      A                      A
 Frequencies --     69.2001                80.8883                91.4847
 Red. masses --      3.5166                 2.2573                 2.0091
 Frc consts  --      0.0099                 0.0087                 0.0099
 IR Inten    --      3.3764                 7.3690                 6.7791

                      7                      8                      9
                      A                      A                      A
 Frequencies --    125.0986               132.9765               165.5882
 Red. masses --      2.3347                 2.6375                 1.3240
 Frc consts  --      0.0215                 0.0275                 0.0214
 IR Inten    --      8.0536                 3.2891                 0.7246

                     10                     11                     12
                      A                      A                      A
 Frequencies --    183.9847               190.9071               196.9892
 Red. masses --      1.6631                 2.7547                 1.3843
 Frc consts  --      0.0332                 0.0592                 0.0317
 IR Inten    --      1.8037                 0.1978                 0.6362

                     13                     14                     15
                      A                      A                      A
 Frequencies --    231.0229               246.2263               257.5442
 Red. masses --      1.2660                 3.6714                 2.7692
 Frc consts  --      0.0398                 0.1311                 0.1082
 IR Inten    --      5.4015                 4.8300                 1.0156

                     16                     17                     18
                      A                      A                      A
 Frequencies --    270.3563               285.0829               300.4927
 Red. masses --      2.6010                 4.4055                 4.5134
 Frc consts  --      0.1120                 0.2110                 0.2401
 IR Inten    --     14.1465                 2.0847                 5.8823

                     19                     20                     21
                      A                      A                      A
 Frequencies --    330.3499               343.2096               417.9164
 Red. masses --      3.7426                 3.8839                 4.1102
 Frc consts  --      0.2406                 0.2695                 0.4230
 IR Inten    --      5.3098                 9.6204                11.5194

                     22                     23                     24
                      A                      A                      A
 Frequencies --    446.1327               486.2200               502.5284
 Red. masses --      4.3457                 4.3303                 3.4650
 Frc consts  --      0.5096                 0.6032                 0.5156
 IR Inten    --      1.8566                11.5588                20.3509

                     25                     26                     27
                      A                      A                      A
 Frequencies --    522.4775               574.1790               611.6656
 Red. masses --      4.6921                 3.4212                 3.3594
 Frc consts  --      0.7547                 0.6645                 0.7405
 IR Inten    --      7.7322                23.4190                 9.0956

                     28                     29                     30
                      A                      A                      A
 Frequencies --    744.3672               805.0998               848.6166
 Red. masses --      3.9881                 4.9710                 1.9833
 Frc consts  --      1.3019                 1.8984                 0.8415
 IR Inten    --     52.6636                72.6450                15.1334

                     31                     32                     33
                      A                      A                      A
 Frequencies --    913.1887               946.6908               960.6170
 Red. masses --      4.8805                 3.4049                 2.8346
 Frc consts  --      2.3979                 1.7979                 1.5411
 IR Inten    --     18.1155                73.3200                33.6923

                     34                     35                     36
                      A                      A                      A
 Frequencies --    981.2612              1006.2384              1039.7776
 Red. masses --      5.1388                 3.4059                 2.8639
 Frc consts  --      2.9153                 2.0318                 1.8243
 IR Inten    --     35.8859                28.1388                16.3949

                     37                     38                     39
                      A                      A                      A
 Frequencies --   1050.6360              1091.9429              1126.3301
 Red. masses --      2.5797                 2.8752                 2.7504
 Frc consts  --      1.6777                 2.0198                 2.0558
 IR Inten    --     22.5981                63.1703                58.4672

                     40                     41                     42
                      A                      A                      A
 Frequencies --   1137.8898              1155.9892              1157.7886
 Red. masses --      2.4947                 3.4311                 3.8201
 Frc consts  --      1.9032                 2.7014                 3.0170
 IR Inten    --      9.0692               108.6518               319.6957

                     43                     44                     45
                      A                      A                      A
 Frequencies --   1163.3351              1173.4540              1177.4840
 Red. masses --      3.1040                 1.2669                 2.1689
 Frc consts  --      2.4750                 1.0278                 1.7717
 IR Inten    --     73.9489                 4.7600                54.3153

                     46                     47                     48
                      A                      A                      A
 Frequencies --   1183.5028              1187.3380              1192.7305
 Red. masses --      1.3669                 1.3224                 1.5975
 Frc consts  --      1.1280                 1.0984                 1.3390
 IR Inten    --     12.6338                18.4379                18.6883

                     49                     50                     51
                      A                      A                      A
 Frequencies --   1215.8415              1232.8262              1234.6514
 Red. masses --      1.6714                 1.5850                 1.7062
 Frc consts  --      1.4557                 1.4193                 1.5324
 IR Inten    --     76.6800                42.5683                29.5097

                     52                     53                     54
                      A                      A                      A
 Frequencies --   1241.7932              1243.6024              1277.7435
 Red. masses --      1.6800                 1.4497                 1.3268
 Frc consts  --      1.5263                 1.3210                 1.2762
 IR Inten    --     72.3361                27.3566                43.2292

                     55                     56                     57
                      A                      A                      A
 Frequencies --   1303.9568              1326.0094              1343.7783
 Red. masses --      1.3357                 1.2198                 1.3345
 Frc consts  --      1.3381                 1.2637                 1.4198
 IR Inten    --     64.0903                32.1651                 4.0642

                     58                     59                     60
                      A                      A                      A
 Frequencies --   1353.8250              1402.0113              1412.1655
 Red. masses --      1.2900                 1.4369                 1.3359
 Frc consts  --      1.3931                 1.6641                 1.5696
 IR Inten    --      0.6310                 2.5593                39.7757

                     61                     62                     63
                      A                      A                      A
 Frequencies --   1434.5892              1450.8399              1461.2452
 Red. masses --      1.2136                 1.3543                 1.1704
 Frc consts  --      1.4715                 1.6795                 1.4725
 IR Inten    --      1.8620                22.6660                19.7331

                     64                     65                     66
                      A                      A                      A
 Frequencies --   1491.5466              1497.0359              1499.4741
 Red. masses --      1.1512                 1.1387                 1.1599
 Frc consts  --      1.5090                 1.5036                 1.5366
 IR Inten    --      2.5865                 1.5701                 3.0481

                     67                     68                     69
                      A                      A                      A
 Frequencies --   1505.2894              1510.3831              1511.0776
 Red. masses --      1.1443                 1.0479                 1.0539
 Frc consts  --      1.5277                 1.4084                 1.4179
 IR Inten    --      2.9249                10.1773                 7.8216

                     70                     71                     72
                      A                      A                      A
 Frequencies --   1517.1134              1517.4234              1523.5958
 Red. masses --      1.0470                 1.0506                 1.0604
 Frc consts  --      1.4199                 1.4253                 1.4503
 IR Inten    --     17.6080                 1.3469                11.6635

                     73                     74                     75
                      A                      A                      A
 Frequencies --   1525.1054              1528.8233              1534.9493
 Red. masses --      1.0495                 1.0508                 1.0504
 Frc consts  --      1.4382                 1.4470                 1.4582
 IR Inten    --     10.1037                15.8912                15.7869

                     76                     77                     78
                      A                      A                      A
 Frequencies --   1545.4842              1629.7562              2968.0682
 Red. masses --      1.0911                 6.7705                 1.0773
 Frc consts  --      1.5354                10.5954                 5.5917
 IR Inten    --      2.9909               336.5899                17.5318

                     79                     80                     81
                      A                      A                      A
 Frequencies --   3009.0020              3020.5848              3032.9288
 Red. masses --      1.0525                 1.0388                 1.0425
 Frc consts  --      5.6144                 5.5841                 5.6498
 IR Inten    --     34.3238                70.8510                43.3535

                     82                     83                     84
                      A                      A                      A
 Frequencies --   3050.2293              3052.0076              3056.7288
 Red. masses --      1.1060                 1.0341                 1.0335
 Frc consts  --      6.0627                 5.6752                 5.6896
 IR Inten    --     55.1126                53.3137                41.0732

                     85                     86                     87
                      A                      A                      A
 Frequencies --   3072.9868              3074.2341              3096.5565
 Red. masses --      1.0827                 1.1061                 1.0859
 Frc consts  --      6.0241                 6.1589                 6.1347
 IR Inten    --      8.9015                49.9012                17.9275

                     88                     89                     90
                      A                      A                      A
 Frequencies --   3116.1202              3128.0759              3129.0701
 Red. masses --      1.0952                 1.0999                 1.1053
 Frc consts  --      6.2659                 6.3408                 6.3763
 IR Inten    --     43.3807                25.3733                23.9998

                     91                     92                     93
                      A                      A                      A
 Frequencies --   3133.8863              3159.7121              3170.0104
 Red. masses --      1.0940                 1.0995                 1.1033
 Frc consts  --      6.3303                 6.4676                 6.5321
 IR Inten    --     13.4186                26.7746                18.9023

                     94                     95                     96
                      A                      A                      A
 Frequencies --   3170.5662              3181.6087              3203.2093
 Red. masses --      1.1031                 1.1039                 1.0945
 Frc consts  --      6.5335                 6.5839                 6.6165
 IR Inten    --     20.3666                17.1696                 2.4253

 - Thermochemistry -
 -------------------
 Temperature   298.150 Kelvin.  Pressure   1.00000 Atm.
 Atom     1 has atomic number  6 and mass  12.00000

 Molecular mass:   219.12325 amu.
 Principal axes and moments of inertia in atomic units:
                           1         2         3
     Eigenvalues --  1808.365674831.952776074.06972
           X            0.99999  -0.00274  -0.00443
           Y            0.00271   0.99997  -0.00736
           Z            0.00445   0.00735   0.99996
 This molecule is an asymmetric top.
 Rotational symmetry number  1.
 Warning -- assumption of classical behavior for rotation
           may cause significant error
 Rotational temperatures (Kelvin)      0.04790     0.01793     0.01426
 Rotational constants (GHZ):           0.99800     0.37350     0.29712
 Zero-point vibrational energy     773677.4 (Joules/Mol)
                                  184.91334 (Kcal/Mol)
 Warning -- explicit consideration of  27 degrees of freedom as
           vibrations may cause significant error
 Vibrational temperatures:     52.93    73.82    81.07    99.56   116.38
          (Kelvin)            131.63   179.99   191.32   238.24   264.71
                              274.67   283.42   332.39   354.26   370.55
                              388.98   410.17   432.34   475.30   493.80
                              601.29   641.89   699.56   723.03   751.73
                              826.12   880.05  1070.98  1158.36  1220.97
                             1313.87  1362.08  1382.11  1411.82  1447.75
                             1496.01  1511.63  1571.06  1620.54  1637.17
                             1663.21  1665.80  1673.78  1688.34  1694.14
                             1702.80  1708.31  1716.07  1749.32  1773.76
                             1776.39  1786.66  1789.27  1838.39  1876.10
                             1907.83  1933.40  1947.85  2017.18  2031.79
                             2064.05  2087.44  2102.41  2146.00  2153.90
                             2157.41  2165.78  2173.10  2174.10  2182.79
                             2183.23  2192.11  2194.29  2199.64  2208.45
                             2223.61  2344.86  4270.39  4329.28  4345.95
                             4363.71  4388.60  4391.16  4397.95  4421.34
                             4423.14  4455.25  4483.40  4500.60  4502.03
                             4508.96  4546.12  4560.94  4561.74  4577.63
                             4608.70

 Zero-point correction=                           0.294678 (Hartree/Particle)
 Thermal correction to Energy=                    0.312108
 Thermal correction to Enthalpy=                  0.313052
 Thermal correction to Gibbs Free Energy=         0.248820
 Sum of electronic and zero-point Energies=           -768.025704
 Sum of electronic and thermal Energies=              -768.008274
 Sum of electronic and thermal Enthalpies=            -768.007330
 Sum of electronic and thermal Free Energies=         -768.071563

                     E (Thermal)             CV                S
                      KCal/Mol        Cal/Mol-Kelvin    Cal/Mol-Kelvin
 Total                  195.851             61.684            135.189
 Electronic               0.000              0.000              0.000
 Translational            0.889              2.981             42.056
 Rotational               0.889              2.981             32.340
 Vibrational            194.073             55.722             60.792
 Vibration     1          0.594              1.982              5.425
 Vibration     2          0.596              1.977              4.766
 Vibration     3          0.596              1.975              4.581
 Vibration     4          0.598              1.969              4.176
 Vibration     5          0.600              1.962              3.869
 Vibration     6          0.602              1.955              3.628
 Vibration     7          0.610              1.928              3.020
 Vibration     8          0.613              1.920              2.903
 Vibration     9          0.624              1.885              2.485
 Vibration    10          0.631              1.862              2.288
 Vibration    11          0.634              1.852              2.219
 Vibration    12          0.636              1.844              2.161
 Vibration    13          0.653              1.794              1.871
 Vibration    14          0.661              1.769              1.757
 Vibration    15          0.667              1.750              1.678
 Vibration    16          0.674              1.728              1.594
 Vibration    17          0.683              1.701              1.503
 Vibration    18          0.693              1.673              1.414
 Vibration    19          0.713              1.615              1.258
 Vibration    20          0.722              1.589              1.197
 Vibration    21          0.781              1.431              0.899
 Vibration    22          0.805              1.369              0.808
 Vibration    23          0.842              1.281              0.693
 Vibration    24          0.858              1.244              0.652
 Vibration    25          0.877              1.200              0.604
 Vibration    26          0.930              1.087              0.496
 Vibration    27          0.971              1.007              0.430

                           ! Non-Optimized Parameters !
 Normal termination of Gaussian 16 at Fri May 24 08:52:24 2019.
