 Gaussian 16, Revision A.03,
 Gaussian 16:  ES64L-G16RevA.03 25-Dec-2016

 -------------------------------------------------------------------
 #p b3lyp 6-31g* opt freq=noraman scrf=(pcm,solvent=tetrahydrofuran)
 -------------------------------------------------------------------

 -----
 title
 -----
 Symbolic Z-matrix:
 Charge =  1 Multiplicity = 1

 SCF Done:  E(RB3LYP) =  -768.321488421     A.U. after   14 cycles
 Optimization completed.
    -- Stationary point found.
 Normal termination of Gaussian 16 at Fri May 24 08:33:06 2019.

 --------------------------------------------------------------------
 #P Geom=AllCheck Guess=TCheck SCRF=Check GenChk RB3LYP/6-31G(d) Freq
 --------------------------------------------------------------------

 Structure from the checkpoint file:  "/scratch/Gau-75618.chk"
 -----
 title
 -----
 Charge =  1 Multiplicity = 1

                         Standard orientation:
 ---------------------------------------------------------------------
 Center     Atomic      Atomic             Coordinates (Angstroms)
 Number     Number       Type             X           Y           Z
 ---------------------------------------------------------------------
      1          6           0       -1.106035    0.447637   -0.519469
      2          6           0       -1.783052   -0.790941    0.132532
      3          6           0       -1.038178   -2.034444   -0.193059
      4          6           0        1.093755   -0.902758   -0.586737
      5          6           0        0.420467    0.450814   -0.274973
      6          1           0       -1.565886   -2.989401   -0.217236
      7          1           0       -1.713328   -0.716731    1.236344
      8          1           0       -1.269453    0.367252   -1.598785
      9          1           0        1.383652   -0.924121   -1.637975
     10          1           0        0.634675    0.710929    0.768117
     11          8           0        0.180172   -2.098031   -0.485108
     12          8           0       -3.096925   -1.006139   -0.300053
     13          8           0       -1.738767    1.651885   -0.158007
     14          8           0        1.019050    1.374373   -1.160536
     15          6           0        2.268564   -1.278276    0.319824
     16          1           0        2.675378   -2.251013    0.005820
     17          1           0        1.914295   -1.375554    1.359674
     18          8           0        3.215514   -0.248641    0.189801
     19          6           0       -4.135028   -0.478463    0.538450
     20          1           0       -5.071268   -0.838411    0.110213
     21          1           0       -4.040249   -0.850331    1.566125
     22          1           0       -4.124641    0.615129    0.528978
     23          6           0       -1.668320    2.077732    1.204363
     24          1           0       -0.649643    2.342268    1.506962
     25          1           0       -2.295454    2.968492    1.263236
     26          1           0       -2.063875    1.326426    1.900081
     27          6           0        1.604957    2.530617   -0.559562
     28          1           0        2.098516    3.070257   -1.370221
     29          1           0        0.843194    3.179792   -0.112321
     30          1           0        2.349352    2.245833    0.191666
     31          6           0        4.377760   -0.473817    0.982630
     32          1           0        5.043842    0.372581    0.807159
     33          1           0        4.883164   -1.403729    0.688294
     34          1           0        4.126042   -0.525874    2.051089
 ---------------------------------------------------------------------

 SCF Done:  E(RB3LYP) =  -768.321488421     A.U. after    1 cycles

 The electronic state is 1-A.
 Alpha  occ. eigenvalues --  -19.33327 -19.20724 -19.19719 -19.18768 -19.18716
 Alpha  occ. eigenvalues --  -10.39904 -10.32130 -10.32014 -10.29507 -10.29482
 Alpha  occ. eigenvalues --  -10.28033 -10.25806 -10.25741 -10.24832 -10.24559
 Alpha  occ. eigenvalues --   -1.21975  -1.09670  -1.07995  -1.07109  -1.06175
 Alpha  occ. eigenvalues --   -0.87418  -0.85918  -0.77721  -0.75002  -0.74104
 Alpha  occ. eigenvalues --   -0.71261  -0.68637  -0.67470  -0.66014  -0.62388
 Alpha  occ. eigenvalues --   -0.60594  -0.59221  -0.55708  -0.54956  -0.53597
 Alpha  occ. eigenvalues --   -0.52847  -0.51541  -0.50844  -0.50613  -0.49116
 Alpha  occ. eigenvalues --   -0.48365  -0.47575  -0.46817  -0.45577  -0.45460
 Alpha  occ. eigenvalues --   -0.44863  -0.42660  -0.42468  -0.41334  -0.40721
 Alpha  occ. eigenvalues --   -0.39658  -0.37056  -0.35957  -0.35432  -0.34906
 Alpha  occ. eigenvalues --   -0.32465  -0.30523  -0.29212  -0.28047
 Alpha virt. eigenvalues --   -0.15359  -0.00689   0.04206   0.04720   0.06548
 Alpha virt. eigenvalues --    0.07193   0.07914   0.09515   0.09575   0.10400
 Alpha virt. eigenvalues --    0.11051   0.11752   0.12256   0.12818   0.13052

 Mulliken charges:
               1
     1  C    0.137714
     2  C    0.017932
     3  C    0.304701
     4  C    0.064270
     5  C    0.077790
     6  H    0.281454
     7  H    0.232122
     8  H    0.197134
     9  H    0.247870
    10  H    0.181336
    11  O   -0.312979
    12  O   -0.475986
    13  O   -0.474623
    14  O   -0.479054
    15  C   -0.024705
    16  H    0.176118
    17  H    0.160688
    18  O   -0.471067
    19  C   -0.232194
    20  H    0.193130
    21  H    0.168920
    22  H    0.183609
    23  C   -0.242695
    24  H    0.167451
    25  H    0.195807
    26  H    0.156680
    27  C   -0.225958
    28  H    0.180395
    29  H    0.161537
    30  H    0.167992
    31  C   -0.212121
    32  H    0.181669
    33  H    0.159401
    34  H    0.155661
 Sum of Mulliken charges =   1.00000

 Dipole moment (field-independent basis, Debye):
    X=             -1.1095    Y=             -4.9760    Z=              4.1973  Tot=              6.6037
 Quadrupole moment (field-independent basis, Debye-Ang):
   XX=            -59.3562   YY=            -69.0915   ZZ=            -83.1528
   XY=              2.7176   XZ=             -2.8618   YZ=              3.6482

  Exact polarizability: 171.072   2.005 150.965  -6.232   3.921 116.273
 Approx polarizability: 176.739  -1.272 172.367  -6.503   3.151 145.544

                      1                      2                      3
                      A                      A                      A
 Frequencies --     30.6730                53.0858                66.7851
 Red. masses --      3.8118                 2.7888                 2.4211
 Frc consts  --      0.0021                 0.0046                 0.0064
 IR Inten    --      0.6703                 4.3496                 4.5356

                      4                      5                      6
                      A                      A                      A
 Frequencies --     69.9353                85.6861                94.5628
 Red. masses --      2.7190                 3.3628                 2.2808
 Frc consts  --      0.0078                 0.0145                 0.0120
 IR Inten    --      2.3084                 4.8217                 8.0861

                      7                      8                      9
                      A                      A                      A
 Frequencies --    112.8693               133.9024               172.9311
 Red. masses --      1.5560                 2.7187                 1.2656
 Frc consts  --      0.0117                 0.0287                 0.0223
 IR Inten    --      3.5838                 0.2034                 0.1423

                     10                     11                     12
                      A                      A                      A
 Frequencies --    178.5699               189.4034               198.2332
 Red. masses --      2.1914                 1.2319                 3.4809
 Frc consts  --      0.0412                 0.0260                 0.0806
 IR Inten    --      0.8935                 1.2911                 0.5999

                     13                     14                     15
                      A                      A                      A
 Frequencies --    223.2042               240.2870               266.2049
 Red. masses --      1.9899                 1.6127                 3.2936
 Frc consts  --      0.0584                 0.0549                 0.1375
 IR Inten    --      1.3653                 8.3214                 3.9722

                     16                     17                     18
                      A                      A                      A
 Frequencies --    269.6431               290.8541               306.5097
 Red. masses --      4.5794                 3.8669                 4.6537
 Frc consts  --      0.1962                 0.1927                 0.2576
 IR Inten    --     11.0187                 9.5727                 3.2677

                     19                     20                     21
                      A                      A                      A
 Frequencies --    324.1876               382.7385               405.6662
 Red. masses --      3.6455                 4.6728                 3.4843
 Frc consts  --      0.2257                 0.4033                 0.3378
 IR Inten    --     12.5999                 2.0038                 4.8823

                     22                     23                     24
                      A                      A                      A
 Frequencies --    444.4916               470.6545               503.0228
 Red. masses --      5.1495                 4.4577                 3.7175
 Frc consts  --      0.5994                 0.5818                 0.5542
 IR Inten    --      3.1005                 1.7565                20.4419

                     25                     26                     27
                      A                      A                      A
 Frequencies --    536.0669               573.5308               588.8859
 Red. masses --      3.6293                 3.4700                 3.0793
 Frc consts  --      0.6145                 0.6725                 0.6292
 IR Inten    --     28.6421                15.3751                 9.2692

                     28                     29                     30
                      A                      A                      A
 Frequencies --    727.4709               800.2830               838.5539
 Red. masses --      4.1029                 6.9897                 2.0296
 Frc consts  --      1.2793                 2.6375                 0.8409
 IR Inten    --     79.7740                75.0690                 5.7735

                     31                     32                     33
                      A                      A                      A
 Frequencies --    940.1449               946.6392               968.9353
 Red. masses --      4.6765                 2.0620                 3.2924
 Frc consts  --      2.4354                 1.0887                 1.8212
 IR Inten    --     41.1913                 7.0463                28.3063

                     34                     35                     36
                      A                      A                      A
 Frequencies --    993.6594              1015.0230              1061.4959
 Red. masses --      5.0455                 4.9380                 3.0310
 Frc consts  --      2.9352                 2.9975                 2.0122
 IR Inten    --     43.5752                32.2638                36.7509

                     37                     38                     39
                      A                      A                      A
 Frequencies --   1073.8975              1087.9780              1117.0851
 Red. masses --      3.0543                 2.7928                 2.6422
 Frc consts  --      2.0754                 1.9477                 1.9426
 IR Inten    --      9.3622                69.9181               103.9753

                     40                     41                     42
                      A                      A                      A
 Frequencies --   1139.6819              1146.6190              1158.0779
 Red. masses --      2.4849                 4.6661                 3.5120
 Frc consts  --      1.9017                 3.6145                 2.7751
 IR Inten    --     51.1997               127.7375               115.8564

                     43                     44                     45
                      A                      A                      A
 Frequencies --   1163.5881              1175.6156              1176.5262
 Red. masses --      3.4623                 1.6990                 1.3291
 Frc consts  --      2.7620                 1.3835                 1.0839
 IR Inten    --    298.5579                41.4265                10.6893

                     46                     47                     48
                      A                      A                      A
 Frequencies --   1179.8627              1186.0690              1190.8571
 Red. masses --      1.7855                 1.3793                 1.3464
 Frc consts  --      1.4644                 1.1432                 1.1249
 IR Inten    --     22.2782                16.9325                 3.7540

                     49                     50                     51
                      A                      A                      A
 Frequencies --   1215.7719              1226.9455              1229.9666
 Red. masses --      1.4688                 1.6668                 1.5596
 Frc consts  --      1.2791                 1.4784                 1.3901
 IR Inten    --     74.0653                53.5726                38.9227

                     52                     53                     54
                      A                      A                      A
 Frequencies --   1236.8131              1245.2467              1272.4823
 Red. masses --      1.7141                 1.4521                 1.3775
 Frc consts  --      1.5448                 1.3267                 1.3142
 IR Inten    --     47.7084                 5.6750                46.3266

                     55                     56                     57
                      A                      A                      A
 Frequencies --   1303.9096              1318.5466              1349.0708
 Red. masses --      1.2416                 1.2256                 1.2455
 Frc consts  --      1.2437                 1.2554                 1.3355
 IR Inten    --     54.8617                17.2506                 7.9270

                     58                     59                     60
                      A                      A                      A
 Frequencies --   1363.8167              1393.0974              1414.9692
 Red. masses --      1.2562                 1.3279                 1.3817
 Frc consts  --      1.3766                 1.5184                 1.6298
 IR Inten    --      0.6859                 8.7520                47.9143

                     61                     62                     63
                      A                      A                      A
 Frequencies --   1428.0877              1447.4332              1453.9252
 Red. masses --      1.2921                 1.3582                 1.1793
 Frc consts  --      1.5526                 1.6765                 1.4688
 IR Inten    --      1.6788                32.8664                29.0002

                     64                     65                     66
                      A                      A                      A
 Frequencies --   1496.1873              1499.1960              1501.8007
 Red. masses --      1.1617                 1.1515                 1.1483
 Frc consts  --      1.5322                 1.5248                 1.5259
 IR Inten    --      3.6094                 0.8873                 0.2385

                     67                     68                     69
                      A                      A                      A
 Frequencies --   1504.5025              1509.6560              1510.4541
 Red. masses --      1.1167                 1.0480                 1.0641
 Frc consts  --      1.4893                 1.4072                 1.4304
 IR Inten    --      0.5744                 8.7597                11.4143

                     70                     71                     72
                      A                      A                      A
 Frequencies --   1514.2374              1522.2324              1525.1156
 Red. masses --      1.0495                 1.0529                 1.0547
 Frc consts  --      1.4179                 1.4374                 1.4454
 IR Inten    --     11.2694                 3.7560                26.8232

                     73                     74                     75
                      A                      A                      A
 Frequencies --   1526.0267              1526.5325              1533.1688
 Red. masses --      1.0534                 1.0626                 1.0535
 Frc consts  --      1.4454                 1.4590                 1.4590
 IR Inten    --     10.1025                 1.8532                 8.7909

                     76                     77                     78
                      A                      A                      A
 Frequencies --   1556.7362              1653.8909              2948.0017
 Red. masses --      1.0884                 7.1658                 1.0768
 Frc consts  --      1.5540                11.5487                 5.5138
 IR Inten    --      1.9681               318.7700                25.8106

                     79                     80                     81
                      A                      A                      A
 Frequencies --   3006.0635              3022.6092              3042.3759
 Red. masses --      1.0535                 1.0368                 1.0367
 Frc consts  --      5.6087                 5.5809                 5.6534
 IR Inten    --     36.1199                71.3173                27.8531

                     82                     83                     84
                      A                      A                      A
 Frequencies --   3047.0748              3047.5645              3048.0237
 Red. masses --      1.0625                 1.0646                 1.0462
 Frc consts  --      5.8120                 5.8258                 5.7268
 IR Inten    --     76.9590                69.3701                18.9883

                     85                     86                     87
                      A                      A                      A
 Frequencies --   3073.1670              3078.2258              3105.7512
 Red. masses --      1.0837                 1.1068                 1.0881
 Frc consts  --      6.0301                 6.1788                 6.1838
 IR Inten    --     23.4357                52.3945                15.3257

                     88                     89                     90
                      A                      A                      A
 Frequencies --   3107.5330              3119.0572              3130.5401
 Red. masses --      1.0996                 1.1066                 1.1009
 Frc consts  --      6.2565                 6.3428                 6.3568
 IR Inten    --     68.9115                37.0419                27.5030

                     91                     92                     93
                      A                      A                      A
 Frequencies --   3156.0571              3161.2121              3163.0922
 Red. masses --      1.0876                 1.1030                 1.0999
 Frc consts  --      6.3825                 6.4943                 6.4837
 IR Inten    --      1.1578                23.3099                25.1466

                     94                     95                     96
                      A                      A                      A
 Frequencies --   3168.4440              3177.1486              3203.1882
 Red. masses --      1.1012                 1.1043                 1.0942
 Frc consts  --      6.5132                 6.5678                 6.6145
 IR Inten    --     17.2508                18.0003                 2.6711

 - Thermochemistry -
 -------------------
 Temperature   298.150 Kelvin.  Pressure   1.00000 Atm.
 Atom     1 has atomic number  6 and mass  12.00000

 Molecular mass:   219.12325 amu.
 Principal axes and moments of inertia in atomic units:
                           1         2         3
     Eigenvalues --  1966.642644627.264295874.91352
           X            0.99999  -0.00348  -0.00207
           Y            0.00350   0.99997   0.00680
           Z            0.00205  -0.00681   0.99997
 This molecule is an asymmetric top.
 Rotational symmetry number  1.
 Warning -- assumption of classical behavior for rotation
           may cause significant error
 Rotational temperatures (Kelvin)      0.04404     0.01872     0.01474
 Rotational constants (GHZ):           0.91768     0.39002     0.30719
 Zero-point vibrational energy     773897.7 (Joules/Mol)
                                  184.96600 (Kcal/Mol)
 Warning -- explicit consideration of  27 degrees of freedom as
           vibrations may cause significant error
 Vibrational temperatures:     44.13    76.38    96.09   100.62   123.28
          (Kelvin)            136.05   162.39   192.66   248.81   256.92
                              272.51   285.21   321.14   345.72   383.01
                              387.96   418.47   441.00   466.43   550.68
                              583.66   639.52   677.17   723.74   771.28
                              825.18   847.28  1046.67  1151.43  1206.49
                             1352.66  1362.00  1394.08  1429.65  1460.39
                             1527.26  1545.10  1565.36  1607.24  1639.75
                             1649.73  1666.22  1674.14  1691.45  1692.76
                             1697.56  1706.49  1713.38  1749.22  1765.30
                             1769.65  1779.50  1791.63  1830.82  1876.04
                             1897.09  1941.01  1962.23  2004.36  2035.83
                             2054.70  2082.53  2091.87  2152.68  2157.01
                             2160.76  2164.64  2172.06  2173.21  2178.65
                             2190.15  2194.30  2195.61  2196.34  2205.89
                             2239.80  2379.58  4241.52  4325.05  4348.86
                             4377.30  4384.06  4384.77  4385.43  4421.60
                             4428.88  4468.48  4471.05  4487.63  4504.15
                             4540.86  4548.28  4550.98  4558.68  4571.21
                             4608.67

 Zero-point correction=                           0.294762 (Hartree/Particle)
 Thermal correction to Energy=                    0.312167
 Thermal correction to Enthalpy=                  0.313111
 Thermal correction to Gibbs Free Energy=         0.248940
 Sum of electronic and zero-point Energies=           -768.026726
 Sum of electronic and thermal Energies=              -768.009321
 Sum of electronic and thermal Enthalpies=            -768.008377
 Sum of electronic and thermal Free Energies=         -768.072549

                     E (Thermal)             CV                S
                      KCal/Mol        Cal/Mol-Kelvin    Cal/Mol-Kelvin
 Total                  195.888             61.652            135.061
 Electronic               0.000              0.000              0.000
 Translational            0.889              2.981             42.056
 Rotational               0.889              2.981             32.347
 Vibrational            194.110             55.691             60.658
 Vibration     1          0.594              1.984              5.785
 Vibration     2          0.596              1.976              4.699
 Vibration     3          0.598              1.970              4.246
 Vibration     4          0.598              1.968              4.155
 Vibration     5          0.601              1.959              3.756
 Vibration     6          0.603              1.953              3.563
 Vibration     7          0.607              1.939              3.219
 Vibration     8          0.613              1.919              2.889
 Vibration     9          0.626              1.876              2.403
 Vibration    10          0.629              1.869              2.343
 Vibration    11          0.633              1.854              2.234
 Vibration    12          0.637              1.842              2.149
 Vibration    13          0.649              1.806              1.933
 Vibration    14          0.657              1.779              1.801
 Vibration    15          0.672              1.735              1.621
 Vibration    16          0.674              1.729              1.598
 Vibration    17          0.687              1.691              1.469
 Vibration    18          0.697              1.661              1.381
 Vibration    19          0.709              1.627              1.289
 Vibration    20          0.752              1.507              1.028
 Vibration    21          0.771              1.458              0.942
 Vibration    22          0.804              1.373              0.813
 Vibration    23          0.828              1.315              0.736
 Vibration    24          0.858              1.243              0.651
 Vibration    25          0.891              1.170              0.574
 Vibration    26          0.930              1.089              0.497
 Vibration    27          0.946              1.055              0.469

 Optimization completed.
    -- Stationary point found.
 Normal termination of Gaussian 16 at Fri May 24 08:52:14 2019.
