 Gaussian 16, Revision A.03,
 Gaussian 16:  ES64L-G16RevA.03 25-Dec-2016

 -------------------------------------------------------------------
 #p b3lyp 6-31g* opt freq=noraman scrf=(pcm,solvent=tetrahydrofuran)
 -------------------------------------------------------------------

 -----
 title
 -----
 Symbolic Z-matrix:
 Charge =  1 Multiplicity = 1

 SCF Done:  E(RB3LYP) =  -768.315002549     A.U. after   13 cycles
 Optimization completed.
    -- Stationary point found.
 Normal termination of Gaussian 16 at Fri May 24 08:37:38 2019.

 --------------------------------------------------------------------
 #P Geom=AllCheck Guess=TCheck SCRF=Check GenChk RB3LYP/6-31G(d) Freq
 --------------------------------------------------------------------

 Structure from the checkpoint file:  "/scratch/Gau-52619.chk"
 -----
 title
 -----
 Charge =  1 Multiplicity = 1

                         Standard orientation:
 ---------------------------------------------------------------------
 Center     Atomic      Atomic             Coordinates (Angstroms)
 Number     Number       Type             X           Y           Z
 ---------------------------------------------------------------------
      1          6           0       -1.141427    0.391907    0.832743
      2          6           0       -1.439393   -0.973533    0.167805
      3          6           0       -0.435756   -1.480678   -0.814317
      4          6           0        1.064191    0.433716   -0.625323
      5          6           0       -0.063478    1.216174    0.058046
      6          1           0       -0.625373   -2.417724   -1.337668
      7          1           0       -1.649794   -1.727613    0.934672
      8          1           0       -2.068714    0.954230    0.708493
      9          1           0        1.349888    0.979503   -1.523801
     10          1           0        0.396833    1.923255    0.762302
     11          8           0        0.578680   -0.864403   -1.226146
     12          8           0       -2.515120   -0.838334   -0.765156
     13          8           0       -0.992052    0.312486    2.231893
     14          8           0       -0.703115    1.905249   -1.007741
     15          6           0        2.328111    0.096001    0.151789
     16          1           0        2.138004   -0.650637    0.934354
     17          1           0        2.669977    1.021220    0.644433
     18          8           0        3.269850   -0.376657   -0.779623
     19          6           0       -3.510139   -1.877514   -0.706571
     20          1           0       -3.964613   -1.902958    0.289812
     21          1           0       -4.255581   -1.614237   -1.457000
     22          1           0       -3.084161   -2.858438   -0.943242
     23          6           0        0.121571   -0.377823    2.788839
     24          1           0        0.226058   -1.398593    2.396073
     25          1           0        1.059110    0.172059    2.646763
     26          1           0       -0.075865   -0.445751    3.860207
     27          6           0       -1.313150    3.141028   -0.637707
     28          1           0       -1.725135    3.563145   -1.555701
     29          1           0       -2.127185    3.004880    0.086277
     30          1           0       -0.570980    3.831797   -0.216185
     31          6           0        4.506172   -0.740051   -0.175075
     32          1           0        5.159618   -1.079652   -0.980631
     33          1           0        4.969859    0.117542    0.332283
     34          1           0        4.371892   -1.554106    0.551375
 ---------------------------------------------------------------------

 SCF Done:  E(RB3LYP) =  -768.315002549     A.U. after    1 cycles

 The electronic state is 1-A.
 Alpha  occ. eigenvalues --  -19.32281 -19.22949 -19.19425 -19.19056 -19.18469
 Alpha  occ. eigenvalues --  -10.39296 -10.31842 -10.31822 -10.29819 -10.29519
 Alpha  occ. eigenvalues --  -10.28317 -10.26771 -10.25966 -10.25144 -10.24749
 Alpha  occ. eigenvalues --   -1.21048  -1.10379  -1.07970  -1.06966  -1.06862
 Alpha  occ. eigenvalues --   -0.87093  -0.85174  -0.77771  -0.75367  -0.74345
 Alpha  occ. eigenvalues --   -0.71039  -0.69256  -0.69005  -0.66290  -0.61090
 Alpha  occ. eigenvalues --   -0.59554  -0.58839  -0.57000  -0.54219  -0.53874
 Alpha  occ. eigenvalues --   -0.52838  -0.52294  -0.50857  -0.50368  -0.49045
 Alpha  occ. eigenvalues --   -0.48553  -0.48050  -0.47335  -0.45973  -0.45759
 Alpha  occ. eigenvalues --   -0.44780  -0.42681  -0.42297  -0.41603  -0.40549
 Alpha  occ. eigenvalues --   -0.39717  -0.38321  -0.36443  -0.35652  -0.34943
 Alpha  occ. eigenvalues --   -0.33192  -0.31289  -0.29178  -0.28314
 Alpha virt. eigenvalues --   -0.14318   0.00842   0.02609   0.04258   0.05954
 Alpha virt. eigenvalues --    0.06440   0.07274   0.08163   0.09229   0.10227
 Alpha virt. eigenvalues --    0.10965   0.11279   0.11632   0.11784   0.12602

 Mulliken charges:
               1
     1  C    0.116818
     2  C    0.018306
     3  C    0.296320
     4  C    0.051433
     5  C    0.058823
     6  H    0.271988
     7  H    0.233691
     8  H    0.214765
     9  H    0.245998
    10  H    0.193729
    11  O   -0.306088
    12  O   -0.454641
    13  O   -0.473777
    14  O   -0.485397
    15  C   -0.024883
    16  H    0.161442
    17  H    0.181636
    18  O   -0.478231
    19  C   -0.236849
    20  H    0.188869
    21  H    0.205665
    22  H    0.180768
    23  C   -0.245860
    24  H    0.155617
    25  H    0.166612
    26  H    0.195719
    27  C   -0.225689
    28  H    0.187593
    29  H    0.161684
    30  H    0.164611
    31  C   -0.213611
    32  H    0.181129
    33  H    0.157411
    34  H    0.154397
 Sum of Mulliken charges =   1.00000

 Dipole moment (field-independent basis, Debye):
    X=             -0.8389    Y=             -3.8640    Z=              1.4023  Tot=              4.1953
 Quadrupole moment (field-independent basis, Debye-Ang):
   XX=            -60.5245   YY=            -64.7726   ZZ=            -85.3389
   XY=              7.7550   XZ=              7.8490   YZ=              1.0530

  Exact polarizability: 171.672   5.873 137.907   2.868  -0.303 128.583
 Approx polarizability: 186.419   2.517 154.359  -0.643   0.203 153.615

                      1                      2                      3
                      A                      A                      A
 Frequencies --     33.8333                45.9564                51.3548
 Red. masses --      3.3944                 3.6299                 3.3841
 Frc consts  --      0.0023                 0.0045                 0.0053
 IR Inten    --      3.6423                 4.7609                 0.9880

                      4                      5                      6
                      A                      A                      A
 Frequencies --     80.3938                86.6286                98.0455
 Red. masses --      2.6015                 2.2337                 2.7700
 Frc consts  --      0.0099                 0.0099                 0.0157
 IR Inten    --      0.1538                 2.6571                 5.5156

                      7                      8                      9
                      A                      A                      A
 Frequencies --    109.9897               124.8372               155.6496
 Red. masses --      2.9894                 2.7359                 2.8236
 Frc consts  --      0.0213                 0.0251                 0.0403
 IR Inten    --      9.7931                10.6145                 3.2149

                     10                     11                     12
                      A                      A                      A
 Frequencies --    164.9619               189.0582               194.5442
 Red. masses --      2.0399                 1.7662                 1.2346
 Frc consts  --      0.0327                 0.0372                 0.0275
 IR Inten    --      2.2948                 0.2057                 0.5776

                     13                     14                     15
                      A                      A                      A
 Frequencies --    231.0108               261.2189               266.6219
 Red. masses --      1.3465                 2.7716                 1.6606
 Frc consts  --      0.0423                 0.1114                 0.0696
 IR Inten    --     12.9989                 9.2473                 2.6411

                     16                     17                     18
                      A                      A                      A
 Frequencies --    276.7399               291.6104               316.8187
 Red. masses --      2.4896                 3.3689                 3.8245
 Frc consts  --      0.1123                 0.1688                 0.2262
 IR Inten    --      4.5208                 5.7275                 3.5840

                     19                     20                     21
                      A                      A                      A
 Frequencies --    337.8447               367.9021               387.7434
 Red. masses --      4.5432                 3.3977                 4.1200
 Frc consts  --      0.3055                 0.2710                 0.3650
 IR Inten    --     22.7373                 6.0513                10.8007

                     22                     23                     24
                      A                      A                      A
 Frequencies --    450.9832               478.7865               492.3833
 Red. masses --      4.1687                 4.4125                 4.4551
 Frc consts  --      0.4995                 0.5960                 0.6364
 IR Inten    --     10.8526                18.5466                12.1407

                     25                     26                     27
                      A                      A                      A
 Frequencies --    575.5053               603.1926               651.9260
 Red. masses --      3.4616                 4.5170                 4.6082
 Frc consts  --      0.6755                 0.9683                 1.1539
 IR Inten    --     14.8981                33.9700                 5.7000

                     28                     29                     30
                      A                      A                      A
 Frequencies --    706.7318               848.0543               879.4793
 Red. masses --      4.2582                 3.2672                 3.4288
 Frc consts  --      1.2531                 1.3844                 1.5626
 IR Inten    --     54.7538                25.0515                69.6386

                     31                     32                     33
                      A                      A                      A
 Frequencies --    908.6558               940.6240               955.5858
 Red. masses --      2.7658                 3.4000                 3.5916
 Frc consts  --      1.3454                 1.7724                 1.9323
 IR Inten    --     10.9905                25.1709                 8.9224

                     34                     35                     36
                      A                      A                      A
 Frequencies --    965.9654              1002.0593              1020.2678
 Red. masses --      3.9910                 3.4348                 2.4521
 Frc consts  --      2.1941                 2.0320                 1.5039
 IR Inten    --      4.3049                72.3814                 7.1294

                     37                     38                     39
                      A                      A                      A
 Frequencies --   1036.0195              1077.5545              1095.7987
 Red. masses --      2.4834                 2.6495                 5.4908
 Frc consts  --      1.5705                 1.8125                 3.8846
 IR Inten    --      9.4201               111.9181               134.8924

                     40                     41                     42
                      A                      A                      A
 Frequencies --   1120.0698              1135.6008              1147.6410
 Red. masses --      3.3074                 3.5495                 1.9546
 Frc consts  --      2.4447                 2.6969                 1.5168
 IR Inten    --    190.8994               153.8702                27.6943

                     43                     44                     45
                      A                      A                      A
 Frequencies --   1160.7350              1163.1239              1182.6372
 Red. masses --      2.3066                 4.6020                 1.3769
 Frc consts  --      1.8310                 3.6682                 1.1346
 IR Inten    --     81.3827               130.8702                22.2740

                     46                     47                     48
                      A                      A                      A
 Frequencies --   1185.1979              1186.7385              1191.5219
 Red. masses --      1.3121                 1.2854                 1.3222
 Frc consts  --      1.0859                 1.0666                 1.1060
 IR Inten    --     10.3684                 5.0967                 2.6767

                     49                     50                     51
                      A                      A                      A
 Frequencies --   1208.6610              1219.4304              1227.5886
 Red. masses --      1.4785                 1.4368                 1.7009
 Frc consts  --      1.2726                 1.2588                 1.5102
 IR Inten    --      4.2859                28.6352                61.4458

                     52                     53                     54
                      A                      A                      A
 Frequencies --   1234.6751              1248.1823              1285.9247
 Red. masses --      1.6568                 1.7021                 1.1612
 Frc consts  --      1.4880                 1.5624                 1.1313
 IR Inten    --     38.9343                26.7034                 5.2596

                     55                     56                     57
                      A                      A                      A
 Frequencies --   1315.9575              1325.7720              1356.8069
 Red. masses --      1.2339                 1.2426                 1.3925
 Frc consts  --      1.2590                 1.2869                 1.5104
 IR Inten    --      1.7246                 6.5178                17.5948

                     58                     59                     60
                      A                      A                      A
 Frequencies --   1365.0959              1375.3870              1398.6225
 Red. masses --      1.3348                 1.3346                 1.3417
 Frc consts  --      1.4656                 1.4875                 1.5463
 IR Inten    --     36.9198                38.0350                22.4497

                     61                     62                     63
                      A                      A                      A
 Frequencies --   1430.0371              1442.1964              1450.9030
 Red. masses --      1.2982                 1.3608                 1.3311
 Frc consts  --      1.5641                 1.6677                 1.6510
 IR Inten    --     10.3229                23.6119                52.3000

                     64                     65                     66
                      A                      A                      A
 Frequencies --   1489.8366              1496.6404              1499.5882
 Red. masses --      1.1151                 1.1409                 1.1285
 Frc consts  --      1.4583                 1.5057                 1.4953
 IR Inten    --     13.7884                 1.8586                 0.9883

                     67                     68                     69
                      A                      A                      A
 Frequencies --   1500.9337              1510.4775              1511.4227
 Red. masses --      1.1470                 1.0490                 1.0554
 Frc consts  --      1.5224                 1.4101                 1.4205
 IR Inten    --      0.4910                11.7292                12.1642

                     70                     71                     72
                      A                      A                      A
 Frequencies --   1513.3678              1522.2085              1525.0703
 Red. masses --      1.0583                 1.0649                 1.0576
 Frc consts  --      1.4281                 1.4538                 1.4493
 IR Inten    --      9.9914                10.2799                12.3063

                     73                     74                     75
                      A                      A                      A
 Frequencies --   1526.4263              1527.3866              1533.0278
 Red. masses --      1.0628                 1.0671                 1.0614
 Frc consts  --      1.4590                 1.4667                 1.4697
 IR Inten    --     13.0173                33.5643                25.5258

                     76                     77                     78
                      A                      A                      A
 Frequencies --   1548.6443              1650.0645              3006.1598
 Red. masses --      1.0797                 5.5849                 1.0601
 Frc consts  --      1.5257                 8.9591                 5.6445
 IR Inten    --      1.0139               359.7200                34.6843

                     79                     80                     81
                      A                      A                      A
 Frequencies --   3018.7284              3026.6876              3030.7475
 Red. masses --      1.0401                 1.0365                 1.0376
 Frc consts  --      5.5845                 5.5945                 5.6156
 IR Inten    --     59.9105                48.0504                48.4338

                     82                     83                     84
                      A                      A                      A
 Frequencies --   3041.5987              3055.4519              3067.1448
 Red. masses --      1.0825                 1.0322                 1.0973
 Frc consts  --      5.9007                 5.6775                 6.0818
 IR Inten    --     26.5835                40.8861               115.4186

                     85                     86                     87
                      A                      A                      A
 Frequencies --   3073.1273              3085.0522              3085.3594
 Red. masses --      1.1047                 1.0849                 1.1065
 Frc consts  --      6.1469                 6.0834                 6.2058
 IR Inten    --      9.7362                 2.2654                56.6672

                     88                     89                     90
                      A                      A                      A
 Frequencies --   3100.1059              3124.7210              3127.4840
 Red. masses --      1.1016                 1.0854                 1.1077
 Frc consts  --      6.2378                 6.2440                 6.3836
 IR Inten    --     50.0228                 3.8982                28.0642

                     91                     92                     93
                      A                      A                      A
 Frequencies --   3158.1004              3160.5997              3165.8835
 Red. masses --      1.0994                 1.0993                 1.1000
 Frc consts  --      6.4602                 6.4700                 6.4955
 IR Inten    --     24.8199                26.1124                21.9908

                     94                     95                     96
                      A                      A                      A
 Frequencies --   3170.8763              3187.3523              3208.3614
 Red. masses --      1.0866                 1.1039                 1.0933
 Frc consts  --      6.4368                 6.6073                 6.6305
 IR Inten    --      0.5231                10.9990                 1.3795

 - Thermochemistry -
 -------------------
 Temperature   298.150 Kelvin.  Pressure   1.00000 Atm.
 Atom     1 has atomic number  6 and mass  12.00000

 Molecular mass:   219.12325 amu.
 Principal axes and moments of inertia in atomic units:
                           1         2         3
     Eigenvalues --  2477.763324596.717384882.05831
           X            0.99982   0.00499   0.01821
           Y           -0.00416   0.99898  -0.04506
           Z           -0.01842   0.04498   0.99882
 This molecule is an asymmetric top.
 Rotational symmetry number  1.
 Warning -- assumption of classical behavior for rotation
           may cause significant error
 Rotational temperatures (Kelvin)      0.03496     0.01884     0.01774
 Rotational constants (GHZ):           0.72838     0.39262     0.36967
 Zero-point vibrational energy     773801.3 (Joules/Mol)
                                  184.94296 (Kcal/Mol)
 Warning -- explicit consideration of  26 degrees of freedom as
           vibrations may cause significant error
 Vibrational temperatures:     48.68    66.12    73.89   115.67   124.64
          (Kelvin)            141.07   158.25   179.61   223.95   237.34
                              272.01   279.91   332.37   375.84   383.61
                              398.17   419.56   455.83   486.08   529.33
                              557.88   648.86   688.87   708.43   828.02
                              867.86   937.98  1016.83  1220.16  1265.37
                             1307.35  1353.35  1374.87  1389.81  1441.74
                             1467.94  1490.60  1550.36  1576.61  1611.53
                             1633.88  1651.20  1670.04  1673.48  1701.55
                             1705.24  1707.45  1714.33  1738.99  1754.49
                             1766.23  1776.42  1795.86  1850.16  1893.37
                             1907.49  1952.14  1964.07  1978.88  2012.31
                             2057.50  2075.00  2087.53  2143.54  2153.33
                             2157.57  2159.51  2173.24  2174.60  2177.40
                             2190.12  2194.24  2196.19  2197.57  2205.69
                             2228.15  2374.07  4325.19  4343.28  4354.73
                             4360.57  4376.18  4396.11  4412.94  4421.54
                             4438.70  4439.14  4460.36  4495.78  4499.75
                             4543.80  4547.40  4555.00  4562.18  4585.89
                             4616.12

 Zero-point correction=                           0.294725 (Hartree/Particle)
 Thermal correction to Energy=                    0.312113
 Thermal correction to Enthalpy=                  0.313057
 Thermal correction to Gibbs Free Energy=         0.248698
 Sum of electronic and zero-point Energies=           -768.020277
 Sum of electronic and thermal Energies=              -768.002889
 Sum of electronic and thermal Enthalpies=            -768.001945
 Sum of electronic and thermal Free Energies=         -768.066305

                     E (Thermal)             CV                S
                      KCal/Mol        Cal/Mol-Kelvin    Cal/Mol-Kelvin
 Total                  195.854             61.539            135.456
 Electronic               0.000              0.000              0.000
 Translational            0.889              2.981             42.056
 Rotational               0.889              2.981             32.386
 Vibrational            194.076             55.577             61.013
 Vibration     1          0.594              1.983              5.591
 Vibration     2          0.595              1.979              4.984
 Vibration     3          0.596              1.977              4.765
 Vibration     4          0.600              1.962              3.881
 Vibration     5          0.601              1.959              3.735
 Vibration     6          0.603              1.951              3.493
 Vibration     7          0.606              1.941              3.269
 Vibration     8          0.610              1.928              3.024
 Vibration     9          0.620              1.896              2.602
 Vibration    10          0.623              1.886              2.492
 Vibration    11          0.633              1.855              2.237
 Vibration    12          0.635              1.847              2.184
 Vibration    13          0.653              1.794              1.871
 Vibration    14          0.669              1.744              1.654
 Vibration    15          0.672              1.734              1.618
 Vibration    16          0.678              1.716              1.554
 Vibration    17          0.687              1.689              1.465
 Vibration    18          0.704              1.641              1.326
 Vibration    19          0.718              1.600              1.222
 Vibration    20          0.741              1.538              1.089
 Vibration    21          0.756              1.496              1.009
 Vibration    22          0.810              1.359              0.793
 Vibration    23          0.835              1.297              0.713
 Vibration    24          0.848              1.267              0.677
 Vibration    25          0.932              1.084              0.494
 Vibration    26          0.962              1.025              0.444

                           ! Non-Optimized Parameters !
 Normal termination of Gaussian 16 at Fri May 24 09:23:58 2019.
