 Gaussian 16, Revision A.03,
 Gaussian 16:  ES64L-G16RevA.03 25-Dec-2016

 -------------------------------------------------------------------
 #p b3lyp 6-31g* opt freq=noraman scrf=(pcm,solvent=tetrahydrofuran)
 -------------------------------------------------------------------

 -----
 title
 -----
 Symbolic Z-matrix:
 Charge =  1 Multiplicity = 1

 SCF Done:  E(RB3LYP) =  -768.324598381     A.U. after   13 cycles
 Optimization completed.
    -- Stationary point found.
 Normal termination of Gaussian 16 at Fri May 24 08:34:34 2019.

 --------------------------------------------------------------------
 #P Geom=AllCheck Guess=TCheck SCRF=Check GenChk RB3LYP/6-31G(d) Freq
 --------------------------------------------------------------------

 Structure from the checkpoint file:  "/scratch/Gau-11912.chk"
 -----
 title
 -----
 Charge =  1 Multiplicity = 1

                         Standard orientation:
 ---------------------------------------------------------------------
 Center     Atomic      Atomic             Coordinates (Angstroms)
 Number     Number       Type             X           Y           Z
 ---------------------------------------------------------------------
      1          6           0        1.274285    0.541924    0.584633
      2          6           0        2.066016    0.038644   -0.643469
      3          6           0        1.335049    0.666565   -1.803113
      4          6           0       -0.712642   -0.213127   -0.881859
      5          6           0       -0.169604   -0.009980    0.554382
      6          1           0        1.808569    1.244147   -2.596591
      7          1           0        3.099783    0.400016   -0.612534
      8          1           0        1.753799    0.228961    1.519699
      9          1           0       -0.594837   -1.260029   -1.157418
     10          1           0       -0.821654    0.706262    1.066787
     11          8           0        0.095424    0.530595   -1.920111
     12          8           0        1.977094   -1.341873   -0.903532
     13          8           0        1.313504    1.948462    0.404409
     14          8           0       -0.229250   -1.278226    1.177422
     15          6           0       -2.134404    0.287969   -1.114340
     16          1           0       -2.437408    0.083813   -2.152151
     17          1           0       -2.175656    1.377722   -0.953801
     18          8           0       -2.936373   -0.403735   -0.188107
     19          6           0        2.797728   -2.157173   -0.052017
     20          1           0        2.412555   -2.158920    0.972052
     21          1           0        2.741651   -3.164329   -0.466338
     22          1           0        3.837183   -1.809217   -0.066939
     23          6           0        1.096487    2.728705    1.582453
     24          1           0        1.853514    2.496310    2.341570
     25          1           0        0.097366    2.562698    2.002746
     26          1           0        1.189624    3.772861    1.280373
     27          6           0       -0.838631   -1.270851    2.469860
     28          1           0       -1.875620   -0.921286    2.405387
     29          1           0       -0.822462   -2.304505    2.820104
     30          1           0       -0.281334   -0.643364    3.178094
     31          6           0       -4.306536   -0.021746   -0.255724
     32          1           0       -4.432704    1.047219   -0.033825
     33          1           0       -4.728434   -0.232813   -1.247898
     34          1           0       -4.833614   -0.612909    0.495204
 ---------------------------------------------------------------------

 SCF Done:  E(RB3LYP) =  -768.324598381     A.U. after    1 cycles

 The electronic state is 1-A.
 Alpha  occ. eigenvalues --  -19.33147 -19.20939 -19.20112 -19.18753 -19.18533
 Alpha  occ. eigenvalues --  -10.39975 -10.31505 -10.31202 -10.29155 -10.29072
 Alpha  occ. eigenvalues --  -10.27520 -10.25761 -10.25713 -10.24765 -10.24670
 Alpha  occ. eigenvalues --   -1.22000  -1.09461  -1.07969  -1.07104  -1.06461
 Alpha  occ. eigenvalues --   -0.86917  -0.85292  -0.76981  -0.74510  -0.74024
 Alpha  occ. eigenvalues --   -0.69785  -0.68913  -0.67869  -0.66307  -0.61195
 Alpha  occ. eigenvalues --   -0.60524  -0.58231  -0.57120  -0.54432  -0.53125
 Alpha  occ. eigenvalues --   -0.51676  -0.50742  -0.50497  -0.50421  -0.49747
 Alpha  occ. eigenvalues --   -0.48034  -0.47553  -0.46744  -0.46083  -0.45660
 Alpha  occ. eigenvalues --   -0.43977  -0.43293  -0.42029  -0.40908  -0.40250
 Alpha  occ. eigenvalues --   -0.39484  -0.37398  -0.36307  -0.35663  -0.35224
 Alpha  occ. eigenvalues --   -0.31832  -0.30958  -0.28962  -0.28186
 Alpha virt. eigenvalues --   -0.15368  -0.00026   0.04467   0.05417   0.06749
 Alpha virt. eigenvalues --    0.06905   0.08464   0.09382   0.10300   0.11131
 Alpha virt. eigenvalues --    0.12009   0.12293   0.12608   0.13105   0.13742

 Mulliken charges:
               1
     1  C    0.065038
     2  C    0.066458
     3  C    0.312149
     4  C    0.059770
     5  C    0.121452
     6  H    0.281177
     7  H    0.210551
     8  H    0.194719
     9  H    0.253064
    10  H    0.188498
    11  O   -0.299690
    12  O   -0.486390
    13  O   -0.496949
    14  O   -0.483081
    15  C   -0.032838
    16  H    0.173141
    17  H    0.164582
    18  O   -0.476700
    19  C   -0.221997
    20  H    0.176993
    21  H    0.193342
    22  H    0.170049
    23  C   -0.223092
    24  H    0.170936
    25  H    0.165973
    26  H    0.189171
    27  C   -0.224708
    28  H    0.168793
    29  H    0.181301
    30  H    0.155638
    31  C   -0.210531
    32  H    0.155401
    33  H    0.158021
    34  H    0.179757
 Sum of Mulliken charges =   1.00000

 Dipole moment (field-independent basis, Debye):
    X=              2.7565    Y=              2.8687    Z=             -1.4000  Tot=              4.2176
 Quadrupole moment (field-independent basis, Debye-Ang):
   XX=            -57.5071   YY=            -78.5867   ZZ=            -68.3063
   XY=             -1.8625   XZ=             -1.8935   YZ=             -1.6786

  Exact polarizability: 154.218   1.826 137.546  -4.221  -4.085 134.685
 Approx polarizability: 163.645   3.250 158.781  -3.164  -5.599 154.982

                      1                      2                      3
                      A                      A                      A
 Frequencies --     28.3188                47.1980                61.1289
 Red. masses --      3.7039                 2.7948                 2.9136
 Frc consts  --      0.0018                 0.0037                 0.0064
 IR Inten    --      0.4744                 4.7365                 6.9928

                      4                      5                      6
                      A                      A                      A
 Frequencies --     71.6767                75.6139                86.8288
 Red. masses --      2.9353                 2.6124                 2.2836
 Frc consts  --      0.0089                 0.0088                 0.0101
 IR Inten    --      0.6868                 0.8442                11.1994

                      7                      8                      9
                      A                      A                      A
 Frequencies --    110.2476               122.6768               139.8552
 Red. masses --      2.7195                 3.2946                 2.4152
 Frc consts  --      0.0195                 0.0292                 0.0278
 IR Inten    --      7.5602                 1.6988                 6.3312

                     10                     11                     12
                      A                      A                      A
 Frequencies --    151.6922               184.3691               188.5534
 Red. masses --      1.8095                 1.2890                 1.5655
 Frc consts  --      0.0245                 0.0258                 0.0328
 IR Inten    --      1.2471                 0.8469                 3.7625

                     13                     14                     15
                      A                      A                      A
 Frequencies --    205.9681               227.4142               245.7509
 Red. masses --      1.6589                 1.3491                 2.8664
 Frc consts  --      0.0415                 0.0411                 0.1020
 IR Inten    --      1.8724                 5.0349                10.8718

                     16                     17                     18
                      A                      A                      A
 Frequencies --    275.0273               290.8370               301.9805
 Red. masses --      3.6278                 3.4124                 3.9302
 Frc consts  --      0.1617                 0.1701                 0.2112
 IR Inten    --     10.8841                 8.0217                11.6819

                     19                     20                     21
                      A                      A                      A
 Frequencies --    366.6985               371.5009               397.6772
 Red. masses --      3.1206                 4.7717                 3.4727
 Frc consts  --      0.2472                 0.3880                 0.3236
 IR Inten    --     11.0925                21.8441                 1.7561

                     22                     23                     24
                      A                      A                      A
 Frequencies --    420.8238               442.4397               487.3330
 Red. masses --      4.2392                 4.2195                 5.3466
 Frc consts  --      0.4423                 0.4867                 0.7481
 IR Inten    --      6.2878                15.3237                 6.8066

                     25                     26                     27
                      A                      A                      A
 Frequencies --    532.5619               559.3142               624.7984
 Red. masses --      3.1920                 5.1457                 4.3518
 Frc consts  --      0.5334                 0.9484                 1.0009
 IR Inten    --     16.7305                35.5073                11.8724

                     28                     29                     30
                      A                      A                      A
 Frequencies --    798.4440               856.7001               879.0840
 Red. masses --      6.5614                 3.3705                 2.6189
 Frc consts  --      2.4645                 1.4575                 1.1924
 IR Inten    --     50.8610                27.8773                 7.7941

                     31                     32                     33
                      A                      A                      A
 Frequencies --    898.2729               950.9272               958.8336
 Red. masses --      3.2558                 2.3740                 4.0492
 Frc consts  --      1.5478                 1.2648                 2.1933
 IR Inten    --      5.5677                23.3406                28.0125

                     34                     35                     36
                      A                      A                      A
 Frequencies --    975.7755              1003.7620              1035.2965
 Red. masses --      3.3334                 4.2890                 2.8182
 Frc consts  --      1.8700                 2.5460                 1.7797
 IR Inten    --      4.4800                79.4544                18.8288

                     37                     38                     39
                      A                      A                      A
 Frequencies --   1054.5794              1090.8423              1123.0574
 Red. masses --      2.7821                 1.8405                 3.0416
 Frc consts  --      1.8230                 1.2904                 2.2603
 IR Inten    --     49.3650                 8.1137                82.1534

                     40                     41                     42
                      A                      A                      A
 Frequencies --   1130.2687              1134.3703              1144.9867
 Red. masses --      4.1459                 4.1616                 2.9514
 Frc consts  --      3.1205                 3.1551                 2.2797
 IR Inten    --     48.9921               180.7001               138.7446

                     43                     44                     45
                      A                      A                      A
 Frequencies --   1148.9155              1167.8310              1180.2530
 Red. masses --      3.4054                 3.6045                 1.2896
 Frc consts  --      2.6485                 2.8964                 1.0584
 IR Inten    --    202.5713               168.6744                 1.2895

                     46                     47                     48
                      A                      A                      A
 Frequencies --   1184.2976              1187.1166              1189.0514
 Red. masses --      1.2783                 1.2793                 1.2898
 Frc consts  --      1.0563                 1.0622                 1.0744
 IR Inten    --      4.7641                 1.1671                 5.3392

                     49                     50                     51
                      A                      A                      A
 Frequencies --   1218.8891              1222.5064              1226.5290
 Red. masses --      1.4783                 1.5445                 1.5020
 Frc consts  --      1.2941                 1.3600                 1.3313
 IR Inten    --     40.4908                14.6682                36.8318

                     52                     53                     54
                      A                      A                      A
 Frequencies --   1236.8522              1244.6656              1272.7110
 Red. masses --      1.7132                 1.4111                 1.3684
 Frc consts  --      1.5442                 1.2880                 1.3059
 IR Inten    --     34.5627                27.7295                17.5021

                     55                     56                     57
                      A                      A                      A
 Frequencies --   1306.5931              1330.7591              1337.5923
 Red. masses --      1.2589                 1.1987                 1.2384
 Frc consts  --      1.2663                 1.2507                 1.3054
 IR Inten    --     17.0932                 2.0644                 6.3954

                     58                     59                     60
                      A                      A                      A
 Frequencies --   1355.7113              1377.8880              1391.0018
 Red. masses --      1.2121                 1.3166                 1.4879
 Frc consts  --      1.3126                 1.4727                 1.6962
 IR Inten    --     10.2330                20.3266                23.6210

                     61                     62                     63
                      A                      A                      A
 Frequencies --   1414.9838              1428.3880              1446.0471
 Red. masses --      1.3708                 1.4875                 1.4243
 Frc consts  --      1.6170                 1.7882                 1.7547
 IR Inten    --     20.7020                17.7682                31.5893

                     64                     65                     66
                      A                      A                      A
 Frequencies --   1494.6935              1497.1455              1498.6478
 Red. masses --      1.1383                 1.1336                 1.1423
 Frc consts  --      1.4984                 1.4970                 1.5116
 IR Inten    --      2.0413                 0.7452                 1.6715

                     67                     68                     69
                      A                      A                      A
 Frequencies --   1500.6489              1509.1657              1509.3729
 Red. masses --      1.1505                 1.0616                 1.0552
 Frc consts  --      1.5265                 1.4245                 1.4163
 IR Inten    --      1.2945                12.1537                 5.1621

                     70                     71                     72
                      A                      A                      A
 Frequencies --   1512.6260              1513.6722              1525.2096
 Red. masses --      1.0567                 1.0498                 1.0475
 Frc consts  --      1.4245                 1.4172                 1.4357
 IR Inten    --     13.1071                 3.5208                22.3761

                     73                     74                     75
                      A                      A                      A
 Frequencies --   1525.9850              1527.4457              1529.0221
 Red. masses --      1.0620                 1.0567                 1.0546
 Frc consts  --      1.4570                 1.4526                 1.4527
 IR Inten    --     12.7358                 7.3216                12.8223

                     76                     77                     78
                      A                      A                      A
 Frequencies --   1552.2611              1658.4992              2997.6758
 Red. masses --      1.0884                 7.2947                 1.0577
 Frc consts  --      1.5452                11.8219                 5.5998
 IR Inten    --      1.2237               177.7405                38.2682

                     79                     80                     81
                      A                      A                      A
 Frequencies --   3021.1729              3032.9832              3040.4942
 Red. masses --      1.0364                 1.0355                 1.0338
 Frc consts  --      5.5734                 5.6123                 5.6311
 IR Inten    --     71.8348                52.9331                48.5094

                     82                     83                     84
                      A                      A                      A
 Frequencies --   3043.8372              3053.2720              3071.5592
 Red. masses --      1.1037                 1.0335                 1.0841
 Frc consts  --      6.0249                 5.6764                 6.0263
 IR Inten    --     58.3511                43.0740                20.7170

                     85                     86                     87
                      A                      A                      A
 Frequencies --   3076.6148              3080.0270              3095.1263
 Red. masses --      1.1068                 1.0858                 1.0871
 Frc consts  --      6.1724                 6.0687                 6.1361
 IR Inten    --     56.1192                21.9282                27.8712

                     88                     89                     90
                      A                      A                      A
 Frequencies --   3100.9207              3105.1029              3130.0353
 Red. masses --      1.1049                 1.1068                 1.1058
 Frc consts  --      6.2599                 6.2876                 6.3831
 IR Inten    --     44.3056                42.8984                30.6569

                     91                     92                     93
                      A                      A                      A
 Frequencies --   3160.9637              3163.0234              3170.5099
 Red. masses --      1.0998                 1.1017                 1.1017
 Frc consts  --      6.4746                 6.4939                 6.5249
 IR Inten    --     25.5584                26.1477                20.3257

                     94                     95                     96
                      A                      A                      A
 Frequencies --   3175.4112              3179.2340              3213.4504
 Red. masses --      1.0871                 1.1039                 1.0956
 Frc consts  --      6.4585                 6.5740                 6.6657
 IR Inten    --      1.9322                14.9928                 1.4199

 - Thermochemistry -
 -------------------
 Temperature   298.150 Kelvin.  Pressure   1.00000 Atm.
 Atom     1 has atomic number  6 and mass  12.00000

 Molecular mass:   219.12325 amu.
 Principal axes and moments of inertia in atomic units:
                           1         2         3
     Eigenvalues --  2463.369484233.887714321.05112
           X            0.99983  -0.01570   0.00991
           Y            0.01482   0.99644   0.08303
           Z           -0.01118  -0.08287   0.99650
 This molecule is an asymmetric top.
 Rotational symmetry number  1.
 Warning -- assumption of classical behavior for rotation
           may cause significant error
 Rotational temperatures (Kelvin)      0.03516     0.02046     0.02004
 Rotational constants (GHZ):           0.73263     0.42626     0.41766
 Zero-point vibrational energy     772715.1 (Joules/Mol)
                                  184.68334 (Kcal/Mol)
 Warning -- explicit consideration of  26 degrees of freedom as
           vibrations may cause significant error
 Vibrational temperatures:     40.74    67.91    87.95   103.13   108.79
          (Kelvin)            124.93   158.62   176.50   201.22   218.25
                              265.27   271.29   296.34   327.20   353.58
                              395.70   418.45   434.48   527.60   534.51
                              572.17   605.47   636.57   701.16   766.24
                              804.73   898.95  1148.78  1232.60  1264.81
                             1292.41  1368.17  1379.55  1403.92  1444.19
                             1489.56  1517.30  1569.48  1615.83  1626.20
                             1632.11  1647.38  1653.03  1680.25  1698.12
                             1703.94  1708.00  1710.78  1753.71  1758.91
                             1764.70  1779.55  1790.80  1831.15  1879.90
                             1914.67  1924.50  1950.57  1982.47  2001.34
                             2035.85  2055.13  2080.54  2150.53  2154.06
                             2156.22  2159.10  2171.35  2171.65  2176.33
                             2177.84  2194.44  2195.55  2197.65  2199.92
                             2233.36  2386.21  4312.99  4346.79  4363.79
                             4374.59  4379.40  4392.98  4419.29  4426.56
                             4431.47  4453.20  4461.53  4467.55  4503.42
                             4547.92  4550.89  4561.66  4568.71  4574.21
                             4623.44

 Zero-point correction=                           0.294312 (Hartree/Particle)
 Thermal correction to Energy=                    0.311997
 Thermal correction to Enthalpy=                  0.312941
 Thermal correction to Gibbs Free Energy=         0.247730
 Sum of electronic and zero-point Energies=           -768.030287
 Sum of electronic and thermal Energies=              -768.012601
 Sum of electronic and thermal Enthalpies=            -768.011657
 Sum of electronic and thermal Free Energies=         -768.076868

                     E (Thermal)             CV                S
                      KCal/Mol        Cal/Mol-Kelvin    Cal/Mol-Kelvin
 Total                  195.781             61.851            137.248
 Electronic               0.000              0.000              0.000
 Translational            0.889              2.981             42.056
 Rotational               0.889              2.981             32.177
 Vibrational            194.004             55.890             63.015
 Vibration     1          0.593              1.984              5.944
 Vibration     2          0.595              1.979              4.931
 Vibration     3          0.597              1.973              4.420
 Vibration     4          0.598              1.968              4.107
 Vibration     5          0.599              1.965              4.002
 Vibration     6          0.601              1.958              3.730
 Vibration     7          0.606              1.941              3.265
 Vibration     8          0.610              1.930              3.058
 Vibration     9          0.615              1.913              2.806
 Vibration    10          0.619              1.901              2.651
 Vibration    11          0.631              1.861              2.284
 Vibration    12          0.633              1.856              2.242
 Vibration    13          0.640              1.831              2.079
 Vibration    14          0.651              1.799              1.899
 Vibration    15          0.660              1.770              1.761
 Vibration    16          0.677              1.720              1.564
 Vibration    17          0.687              1.691              1.469
 Vibration    18          0.694              1.670              1.406
 Vibration    19          0.740              1.541              1.094
 Vibration    20          0.743              1.531              1.074
 Vibration    21          0.764              1.475              0.971
 Vibration    22          0.783              1.425              0.889
 Vibration    23          0.802              1.378              0.819
 Vibration    24          0.843              1.278              0.691
 Vibration    25          0.888              1.178              0.582
 Vibration    26          0.915              1.119              0.525

                           ! Non-Optimized Parameters !
 Normal termination of Gaussian 16 at Fri May 24 08:53:56 2019.
