 Gaussian 16, Revision A.03,
 Gaussian 16:  ES64L-G16RevA.03 25-Dec-2016

 -------------------------------------------------------------------
 #p b3lyp 6-31g* opt freq=noraman scrf=(pcm,solvent=tetrahydrofuran)
 -------------------------------------------------------------------

 -----
 title
 -----
 Symbolic Z-matrix:
 Charge =  1 Multiplicity = 1

 SCF Done:  E(RB3LYP) =  -768.325597287     A.U. after   14 cycles
 Optimization completed.
    -- Stationary point found.
 Normal termination of Gaussian 16 at Fri May 24 08:34:48 2019.

 --------------------------------------------------------------------
 #P Geom=AllCheck Guess=TCheck SCRF=Check GenChk RB3LYP/6-31G(d) Freq
 --------------------------------------------------------------------

 Structure from the checkpoint file:  "/scratch/Gau-133616.chk"
 -----
 title
 -----
 Charge =  1 Multiplicity = 1

                         Standard orientation:
 ---------------------------------------------------------------------
 Center     Atomic      Atomic             Coordinates (Angstroms)
 Number     Number       Type             X           Y           Z
 ---------------------------------------------------------------------
      1          6           0       -1.195803    0.464550   -0.520694
      2          6           0       -1.508317   -0.942620    0.059456
      3          6           0       -0.390686   -1.878478   -0.261139
      4          6           0        1.294901   -0.118417   -0.447745
      5          6           0        0.212867    0.905098   -0.060325
      6          1           0       -0.586432   -2.945217   -0.381434
      7          1           0       -1.558017   -0.883239    1.162970
      8          1           0       -1.181564    0.380418   -1.611976
      9          1           0        1.581196    0.029384   -1.490047
     10          1           0        0.222524    1.058184    1.028764
     11          8           0        0.800429   -1.547432   -0.472544
     12          8           0       -2.688525   -1.454650   -0.495177
     13          8           0       -2.192983    1.414160   -0.251322
     14          8           0        0.635171    2.072875   -0.729684
     15          6           0        2.518765   -0.109538    0.446051
     16          1           0        2.832002    0.942989    0.535445
     17          1           0        2.255876   -0.468996    1.454456
     18          8           0        3.510171   -0.906611   -0.148316
     19          6           0       -3.465578   -2.283738    0.380905
     20          1           0       -3.744242   -1.733508    1.287612
     21          1           0       -4.362083   -2.552447   -0.178004
     22          1           0       -2.926330   -3.197020    0.661908
     23          6           0       -2.639243    1.562144    1.096862
     24          1           0       -3.214126    0.688287    1.427979
     25          1           0       -3.299704    2.430471    1.093441
     26          1           0       -1.817321    1.747322    1.798817
     27          6           0        0.344645    3.311847   -0.074873
     28          1           0        0.874285    4.079971   -0.641265
     29          1           0       -0.727964    3.524616   -0.083404
     30          1           0        0.715169    3.305197    0.958559
     31          6           0        4.714815   -0.938316    0.609064
     32          1           0        4.544977   -1.354983    1.612020
     33          1           0        5.148848    0.066428    0.709817
     34          1           0        5.410609   -1.579791    0.065311
 ---------------------------------------------------------------------

 SCF Done:  E(RB3LYP) =  -768.325597287     A.U. after    1 cycles

 The electronic state is 1-A.
 Alpha  occ. eigenvalues --  -19.33050 -19.21359 -19.19649 -19.19386 -19.18265
 Alpha  occ. eigenvalues --  -10.39773 -10.32186 -10.32155 -10.29941 -10.29783
 Alpha  occ. eigenvalues --  -10.27949 -10.26414 -10.25740 -10.24982 -10.24623
 Alpha  occ. eigenvalues --   -1.21729  -1.10142  -1.08373  -1.06825  -1.06596
 Alpha  occ. eigenvalues --   -0.87460  -0.86056  -0.77528  -0.75413  -0.74042
 Alpha  occ. eigenvalues --   -0.71732  -0.69046  -0.68227  -0.65420  -0.62701
 Alpha  occ. eigenvalues --   -0.60706  -0.59202  -0.55844  -0.54892  -0.53943
 Alpha  occ. eigenvalues --   -0.52711  -0.51931  -0.50999  -0.50321  -0.49251
 Alpha  occ. eigenvalues --   -0.48857  -0.47969  -0.46634  -0.45784  -0.45649
 Alpha  occ. eigenvalues --   -0.44232  -0.43304  -0.42167  -0.41974  -0.40535
 Alpha  occ. eigenvalues --   -0.40233  -0.37938  -0.35931  -0.35402  -0.34939
 Alpha  occ. eigenvalues --   -0.32106  -0.31918  -0.28969  -0.28265
 Alpha virt. eigenvalues --   -0.15199  -0.00050   0.04040   0.04658   0.05757
 Alpha virt. eigenvalues --    0.06907   0.07854   0.08439   0.09533   0.10030
 Alpha virt. eigenvalues --    0.10822   0.11141   0.12009   0.12478   0.12845

 Mulliken charges:
               1
     1  C    0.137094
     2  C    0.011598
     3  C    0.299491
     4  C    0.065322
     5  C    0.072472
     6  H    0.277140
     7  H    0.229134
     8  H    0.196708
     9  H    0.247709
    10  H    0.173655
    11  O   -0.303024
    12  O   -0.464273
    13  O   -0.471272
    14  O   -0.483127
    15  C   -0.021618
    16  H    0.184227
    17  H    0.164562
    18  O   -0.479078
    19  C   -0.237748
    20  H    0.176918
    21  H    0.201688
    22  H    0.171013
    23  C   -0.246303
    24  H    0.167286
    25  H    0.196077
    26  H    0.163449
    27  C   -0.225806
    28  H    0.183993
    29  H    0.176095
    30  H    0.159160
    31  C   -0.212510
    32  H    0.153615
    33  H    0.156762
    34  H    0.179592
 Sum of Mulliken charges =   1.00000

 Dipole moment (field-independent basis, Debye):
    X=             -0.9832    Y=             -3.6214    Z=              4.5810  Tot=              5.9218
 Quadrupole moment (field-independent basis, Debye-Ang):
   XX=            -64.3425   YY=            -65.6064   ZZ=            -83.8460
   XY=              8.5423   XZ=             -2.7357   YZ=              2.3439

  Exact polarizability: 171.469   3.864 154.860  -5.841   2.524 114.105
 Approx polarizability: 181.497  -0.417 170.003  -5.997   1.635 144.845

                      1                      2                      3
                      A                      A                      A
 Frequencies --     36.8927                57.2306                76.6326
 Red. masses --      3.7881                 4.0006                 3.4105
 Frc consts  --      0.0030                 0.0077                 0.0118
 IR Inten    --      2.7214                 0.2949                 1.2786

                      4                      5                      6
                      A                      A                      A
 Frequencies --     91.5000               104.0266               107.6360
 Red. masses --      2.1745                 2.5549                 2.6752
 Frc consts  --      0.0107                 0.0163                 0.0183
 IR Inten    --      7.3823                 3.9749                 3.8927

                      7                      8                      9
                      A                      A                      A
 Frequencies --    116.6984               148.0857               158.8195
 Red. masses --      2.6965                 1.5401                 1.9787
 Frc consts  --      0.0216                 0.0199                 0.0294
 IR Inten    --      1.2860                 6.3289                 4.5858

                     10                     11                     12
                      A                      A                      A
 Frequencies --    173.0293               191.0940               204.5924
 Red. masses --      2.8577                 1.5669                 1.3439
 Frc consts  --      0.0504                 0.0337                 0.0331
 IR Inten    --      4.8898                 1.4759                 1.8769

                     13                     14                     15
                      A                      A                      A
 Frequencies --    225.4312               245.7424               256.4003
 Red. masses --      1.4601                 2.5288                 2.1391
 Frc consts  --      0.0437                 0.0900                 0.0829
 IR Inten    --      0.6114                11.9679                11.0811

                     16                     17                     18
                      A                      A                      A
 Frequencies --    259.3258               295.6756               302.6134
 Red. masses --      3.2250                 4.7619                 3.6983
 Frc consts  --      0.1278                 0.2453                 0.1995
 IR Inten    --      2.2930                 9.7162                 5.3413

                     19                     20                     21
                      A                      A                      A
 Frequencies --    315.1961               368.4887               399.6720
 Red. masses --      4.1149                 3.7700                 4.3521
 Frc consts  --      0.2409                 0.3016                 0.4096
 IR Inten    --      2.7347                 1.5824                 3.1611

                     22                     23                     24
                      A                      A                      A
 Frequencies --    429.4493               442.8348               537.2081
 Red. masses --      4.4402                 3.5329                 3.1766
 Frc consts  --      0.4825                 0.4082                 0.5401
 IR Inten    --      6.0244                17.3861                10.8441

                     25                     26                     27
                      A                      A                      A
 Frequencies --    547.9530               578.9997               611.3629
 Red. masses --      3.3773                 3.8156                 3.3956
 Frc consts  --      0.5975                 0.7537                 0.7478
 IR Inten    --     25.5406                27.0750                 8.3965

                     28                     29                     30
                      A                      A                      A
 Frequencies --    722.7502               730.8166               851.2003
 Red. masses --      3.9098                 4.1913                 2.0550
 Frc consts  --      1.2033                 1.3189                 0.8773
 IR Inten    --     79.5587                61.6696                 0.9939

                     31                     32                     33
                      A                      A                      A
 Frequencies --    936.8126               958.3805               982.9524
 Red. masses --      5.1041                 3.4623                 3.5111
 Frc consts  --      2.6392                 1.8736                 1.9988
 IR Inten    --      4.8289                48.3778                64.1247

                     34                     35                     36
                      A                      A                      A
 Frequencies --    986.8672              1024.2795              1062.4574
 Red. masses --      4.0425                 3.8453                 2.8276
 Frc consts  --      2.3196                 2.3770                 1.8805
 IR Inten    --     44.7355                 6.3238                21.3893

                     37                     38                     39
                      A                      A                      A
 Frequencies --   1074.5482              1083.6872              1104.1675
 Red. masses --      2.8014                 3.1821                 3.4212
 Frc consts  --      1.9058                 2.2018                 2.4576
 IR Inten    --     57.0598                65.0087                46.4608

                     40                     41                     42
                      A                      A                      A
 Frequencies --   1137.8187              1144.8695              1161.9797
 Red. masses --      2.4372                 3.9806                 3.7000
 Frc consts  --      1.8590                 3.0741                 2.9434
 IR Inten    --     27.9307               220.9286               161.3184

                     43                     44                     45
                      A                      A                      A
 Frequencies --   1163.7877              1174.2516              1184.7221
 Red. masses --      2.7016                 3.5278                 1.2813
 Frc consts  --      2.1559                 2.8660                 1.0596
 IR Inten    --    256.8845                 9.2433                 2.8285

                     46                     47                     48
                      A                      A                      A
 Frequencies --   1187.1987              1190.5306              1192.1879
 Red. masses --      1.3708                 1.3088                 1.3781
 Frc consts  --      1.1384                 1.0930                 1.1540
 IR Inten    --     13.1919                19.9423                 2.4653

                     49                     50                     51
                      A                      A                      A
 Frequencies --   1212.5093              1225.7993              1233.9899
 Red. masses --      1.4505                 1.5473                 1.7404
 Frc consts  --      1.2565                 1.3698                 1.5614
 IR Inten    --     48.2496                54.2237                12.1015

                     52                     53                     54
                      A                      A                      A
 Frequencies --   1239.6123              1254.9050              1285.4071
 Red. masses --      1.6709                 1.5624                 1.2881
 Frc consts  --      1.5128                 1.4496                 1.2539
 IR Inten    --     45.6355                24.0557                15.8918

                     55                     56                     57
                      A                      A                      A
 Frequencies --   1294.3879              1326.6402              1347.8082
 Red. masses --      1.2572                 1.2926                 1.2113
 Frc consts  --      1.2410                 1.3403                 1.2965
 IR Inten    --     67.4929                11.6740                34.6161

                     58                     59                     60
                      A                      A                      A
 Frequencies --   1358.5421              1385.7063              1417.5208
 Red. masses --      1.1877                 1.3792                 1.2883
 Frc consts  --      1.2915                 1.5604                 1.5252
 IR Inten    --     35.1332                 7.2475                 3.8195

                     61                     62                     63
                      A                      A                      A
 Frequencies --   1423.7552              1446.4121              1452.6623
 Red. masses --      1.3134                 1.1854                 1.4569
 Frc consts  --      1.5686                 1.4612                 1.8114
 IR Inten    --     25.9668                32.9796                38.9226

                     64                     65                     66
                      A                      A                      A
 Frequencies --   1494.6888              1498.9273              1501.2306
 Red. masses --      1.1209                 1.1446                 1.1489
 Frc consts  --      1.4755                 1.5152                 1.5256
 IR Inten    --      1.8477                 4.3382                 0.5144

                     67                     68                     69
                      A                      A                      A
 Frequencies --   1504.4234              1508.9273              1510.2628
 Red. masses --      1.1173                 1.0634                 1.0645
 Frc consts  --      1.4899                 1.4266                 1.4306
 IR Inten    --      1.4723                 6.2704                12.8130

                     70                     71                     72
                      A                      A                      A
 Frequencies --   1510.8523              1520.6299              1523.9327
 Red. masses --      1.0465                 1.0632                 1.0516
 Frc consts  --      1.4075                 1.4485                 1.4389
 IR Inten    --      9.3031                19.8459                 9.2818

                     73                     74                     75
                      A                      A                      A
 Frequencies --   1527.7836              1532.2723              1537.2792
 Red. masses --      1.0475                 1.0701                 1.0517
 Frc consts  --      1.4406                 1.4803                 1.4643
 IR Inten    --     17.6378                12.8708                12.0187

                     76                     77                     78
                      A                      A                      A
 Frequencies --   1541.1094              1649.2442              2979.2813
 Red. masses --      1.1053                 6.7565                 1.0771
 Frc consts  --      1.5466                10.8278                 5.6327
 IR Inten    --      3.5255               310.3086                17.7441

                     79                     80                     81
                      A                      A                      A
 Frequencies --   3001.2532              3018.9693              3031.6364
 Red. masses --      1.0550                 1.0359                 1.0716
 Frc consts  --      5.5988                 5.5629                 5.8028
 IR Inten    --     37.0774                64.4194                 3.4114

                     82                     83                     84
                      A                      A                      A
 Frequencies --   3037.5829              3038.8316              3040.3747
 Red. masses --      1.1043                 1.0356                 1.0427
 Frc consts  --      6.0033                 5.6344                 5.6790
 IR Inten    --     53.5427                18.4867                48.5215

                     85                     86                     87
                      A                      A                      A
 Frequencies --   3042.5132              3073.2103              3100.9144
 Red. masses --      1.0408                 1.1067                 1.0994
 Frc consts  --      5.6765                 6.1582                 6.2288
 IR Inten    --     81.3431                54.9063                37.2754

                     88                     89                     90
                      A                      A                      A
 Frequencies --   3101.5128              3103.2934              3125.0255
 Red. masses --      1.0937                 1.1063                 1.0977
 Frc consts  --      6.1985                 6.2772                 6.3158
 IR Inten    --     51.7244                32.8155                37.6423

                     91                     92                     93
                      A                      A                      A
 Frequencies --   3157.6045              3160.3996              3167.3004
 Red. masses --      1.0867                 1.0994                 1.1048
 Frc consts  --      6.3840                 6.4695                 6.5301
 IR Inten    --      0.4635                28.4330                22.1887

                     94                     95                     96
                      A                      A                      A
 Frequencies --   3167.9743              3182.2365              3196.0510
 Red. masses --      1.1003                 1.1012                 1.0941
 Frc consts  --      6.5061                 6.5704                 6.5848
 IR Inten    --     17.7035                15.6535                 0.5722

 - Thermochemistry -
 -------------------
 Temperature   298.150 Kelvin.  Pressure   1.00000 Atm.
 Atom     1 has atomic number  6 and mass  12.00000

 Molecular mass:   219.12325 amu.
 Principal axes and moments of inertia in atomic units:
                           1         2         3
     Eigenvalues --  2290.056634572.665266365.55954
           X            0.99994   0.01105  -0.00253
           Y           -0.01105   0.99994   0.00274
           Z            0.00256  -0.00272   0.99999
 This molecule is an asymmetric top.
 Rotational symmetry number  1.
 Warning -- assumption of classical behavior for rotation
           may cause significant error
 Rotational temperatures (Kelvin)      0.03782     0.01894     0.01361
 Rotational constants (GHZ):           0.78808     0.39468     0.28352
 Zero-point vibrational energy     773577.4 (Joules/Mol)
                                  184.88944 (Kcal/Mol)
 Warning -- explicit consideration of  27 degrees of freedom as
           vibrations may cause significant error
 Vibrational temperatures:     53.08    82.34   110.26   131.65   149.67
          (Kelvin)            154.86   167.90   213.06   228.51   248.95
                              274.94   294.36   324.35   353.57   368.90
                              373.11   425.41   435.39   453.50   530.17
                              575.04   617.88   637.14   772.92   788.38
                              833.05   879.61  1039.88  1051.48  1224.69
                             1347.86  1378.90  1414.25  1419.88  1473.71
                             1528.64  1546.04  1559.18  1588.65  1637.07
                             1647.21  1671.83  1674.43  1689.49  1704.55
                             1708.11  1712.91  1715.29  1744.53  1763.65
                             1775.44  1783.53  1805.53  1849.41  1862.34
                             1908.74  1939.20  1954.64  1993.72  2039.50
                             2048.47  2081.06  2090.06  2150.52  2156.62
                             2159.94  2164.53  2171.01  2172.93  2173.78
                             2187.85  2192.60  2198.14  2204.60  2211.80
                             2217.31  2372.89  4286.52  4318.13  4343.62
                             4361.85  4370.40  4372.20  4374.42  4377.50
                             4421.66  4461.52  4462.39  4464.95  4496.21
                             4543.09  4547.11  4557.04  4558.01  4578.53
                             4598.40

 Zero-point correction=                           0.294640 (Hartree/Particle)
 Thermal correction to Energy=                    0.311941
 Thermal correction to Enthalpy=                  0.312885
 Thermal correction to Gibbs Free Energy=         0.249481
 Sum of electronic and zero-point Energies=           -768.030957
 Sum of electronic and thermal Energies=              -768.013656
 Sum of electronic and thermal Enthalpies=            -768.012712
 Sum of electronic and thermal Free Energies=         -768.076116

                     E (Thermal)             CV                S
                      KCal/Mol        Cal/Mol-Kelvin    Cal/Mol-Kelvin
 Total                  195.746             61.696            133.445
 Electronic               0.000              0.000              0.000
 Translational            0.889              2.981             42.056
 Rotational               0.889              2.981             32.566
 Vibrational            193.968             55.735             58.823
 Vibration     1          0.594              1.982              5.419
 Vibration     2          0.596              1.975              4.550
 Vibration     3          0.599              1.965              3.975
 Vibration     4          0.602              1.955              3.628
 Vibration     5          0.605              1.946              3.377
 Vibration     6          0.606              1.943              3.311
 Vibration     7          0.608              1.936              3.154
 Vibration     8          0.617              1.905              2.697
 Vibration     9          0.621              1.893              2.564
 Vibration    10          0.627              1.876              2.402
 Vibration    11          0.634              1.852              2.217
 Vibration    12          0.640              1.833              2.091
 Vibration    13          0.650              1.802              1.915
 Vibration    14          0.660              1.770              1.761
 Vibration    15          0.666              1.752              1.686
 Vibration    16          0.668              1.747              1.666
 Vibration    17          0.690              1.682              1.441
 Vibration    18          0.694              1.669              1.402
 Vibration    19          0.703              1.645              1.335
 Vibration    20          0.741              1.537              1.086
 Vibration    21          0.766              1.471              0.964
 Vibration    22          0.791              1.406              0.860
 Vibration    23          0.802              1.377              0.818
 Vibration    24          0.892              1.168              0.571
 Vibration    25          0.903              1.144              0.548
 Vibration    26          0.936              1.077              0.487
 Vibration    27          0.971              1.008              0.431

 Optimization completed.
    -- Stationary point found.
 Normal termination of Gaussian 16 at Fri May 24 08:52:12 2019.
