 Gaussian 16, Revision A.03,
 Gaussian 16:  ES64L-G16RevA.03 25-Dec-2016

 -------------------------------------------------------------------
 #p b3lyp 6-31g* opt freq=noraman scrf=(pcm,solvent=tetrahydrofuran)
 -------------------------------------------------------------------

 -----
 title
 -----
 Symbolic Z-matrix:
 Charge =  1 Multiplicity = 1

 SCF Done:  E(RB3LYP) =  -768.315820331     A.U. after   16 cycles
 Optimization completed.
    -- Stationary point found.
 Normal termination of Gaussian 16 at Fri May 24 08:35:13 2019.

 --------------------------------------------------------------------
 #P Geom=AllCheck Guess=TCheck SCRF=Check GenChk RB3LYP/6-31G(d) Freq
 --------------------------------------------------------------------

 Structure from the checkpoint file:  "/scratch/Gau-41512.chk"
 -----
 title
 -----
 Charge =  1 Multiplicity = 1

                         Standard orientation:
 ---------------------------------------------------------------------
 Center     Atomic      Atomic             Coordinates (Angstroms)
 Number     Number       Type             X           Y           Z
 ---------------------------------------------------------------------
      1          6           0        0.747533    0.506423    0.612667
      2          6           0        1.235755    0.427570   -0.881202
      3          6           0        0.830188   -0.821897   -1.579890
      4          6           0       -1.184710   -0.986029   -0.271454
      5          6           0       -0.420978   -0.468490    0.951525
      6          1           0        1.444033   -1.247292   -2.376054
      7          1           0        0.640503    1.194376   -1.411784
      8          1           0        1.592075    0.244183    1.262224
      9          1           0       -1.713821   -1.908221   -0.035512
     10          1           0       -1.151529    0.134417    1.497312
     11          8           0       -0.246961   -1.433971   -1.364185
     12          8           0        2.568158    0.759769   -1.150203
     13          8           0        0.280693    1.802392    0.898911
     14          8           0       -0.060801   -1.490839    1.856145
     15          6           0       -2.172190    0.015996   -0.884216
     16          1           0       -2.517659   -0.358533   -1.858969
     17          1           0       -1.704398    1.000734   -1.034925
     18          8           0       -3.217334    0.091088    0.052869
     19          6           0        3.578707   -0.082590   -0.575977
     20          1           0        3.422263   -1.138085   -0.837482
     21          1           0        4.519877    0.250952   -1.013429
     22          1           0        3.632691    0.024108    0.512140
     23          6           0        1.296947    2.800855    1.041258
     24          1           0        1.818827    2.989544    0.096363
     25          1           0        2.027471    2.504504    1.805161
     26          1           0        0.783460    3.708916    1.360680
     27          6           0        0.812997   -2.518434    1.397299
     28          1           0        1.783719   -2.122910    1.067586
     29          1           0        0.984764   -3.171145    2.254350
     30          1           0        0.367482   -3.114459    0.590210
     31          6           0       -4.228709    1.025635   -0.315883
     32          1           0       -3.818349    2.040840   -0.402548
     33          1           0       -4.975653    1.002357    0.479313
     34          1           0       -4.699039    0.743962   -1.267691
 ---------------------------------------------------------------------

 SCF Done:  E(RB3LYP) =  -768.315820331     A.U. after    1 cycles

 The electronic state is 1-A.
 Alpha  occ. eigenvalues --  -19.33751 -19.21499 -19.19524 -19.19472 -19.18964
 Alpha  occ. eigenvalues --  -10.40374 -10.32597 -10.32311 -10.30361 -10.29707
 Alpha  occ. eigenvalues --  -10.28615 -10.26820 -10.26058 -10.25142 -10.24888
 Alpha  occ. eigenvalues --   -1.22517  -1.10172  -1.08279  -1.07303  -1.07070
 Alpha  occ. eigenvalues --   -0.87507  -0.85837  -0.78358  -0.75842  -0.74402
 Alpha  occ. eigenvalues --   -0.72260  -0.68946  -0.68433  -0.66979  -0.62924
 Alpha  occ. eigenvalues --   -0.59824  -0.59191  -0.57281  -0.54900  -0.54002
 Alpha  occ. eigenvalues --   -0.52872  -0.51937  -0.51272  -0.50918  -0.49065
 Alpha  occ. eigenvalues --   -0.48881  -0.48434  -0.47493  -0.46823  -0.45964
 Alpha  occ. eigenvalues --   -0.44481  -0.43450  -0.43058  -0.42048  -0.41200
 Alpha  occ. eigenvalues --   -0.39778  -0.37636  -0.36307  -0.36021  -0.35032
 Alpha  occ. eigenvalues --   -0.33366  -0.30655  -0.29401  -0.28776
 Alpha virt. eigenvalues --   -0.16104   0.00118   0.03042   0.04293   0.05295
 Alpha virt. eigenvalues --    0.05733   0.07814   0.08378   0.09073   0.09455
 Alpha virt. eigenvalues --    0.10775   0.11256   0.11903   0.12876   0.12969

 Mulliken charges:
               1
     1  C    0.107274
     2  C    0.023093
     3  C    0.263131
     4  C    0.019247
     5  C    0.094288
     6  H    0.287021
     7  H    0.271630
     8  H    0.193790
     9  H    0.247565
    10  H    0.230436
    11  O   -0.305755
    12  O   -0.466925
    13  O   -0.488624
    14  O   -0.470360
    15  C   -0.032671
    16  H    0.181728
    17  H    0.167110
    18  O   -0.474680
    19  C   -0.251520
    20  H    0.165617
    21  H    0.207168
    22  H    0.184421
    23  C   -0.228776
    24  H    0.169701
    25  H    0.165084
    26  H    0.186240
    27  C   -0.249781
    28  H    0.148575
    29  H    0.200644
    30  H    0.165171
    31  C   -0.213453
    32  H    0.160259
    33  H    0.183788
    34  H    0.159561
 Sum of Mulliken charges =   1.00000

 Dipole moment (field-independent basis, Debye):
    X=              3.0964    Y=             -1.8687    Z=             -4.9560  Tot=              6.1353
 Quadrupole moment (field-independent basis, Debye-Ang):
   XX=            -60.7196   YY=            -74.1476   ZZ=            -81.0009
   XY=             -6.8830   XZ=              4.3424   YZ=              4.4294

  Exact polarizability: 159.258   0.141 141.162  -4.080   3.969 126.992
 Approx polarizability: 171.150   3.376 163.102  -8.110   3.575 153.419

                      1                      2                      3
                      A                      A                      A
 Frequencies --     35.1141                53.8343                79.8096
 Red. masses --      3.7564                 3.9509                 3.0370
 Frc consts  --      0.0027                 0.0067                 0.0114
 IR Inten    --      0.7942                 1.3431                 3.5013

                      4                      5                      6
                      A                      A                      A
 Frequencies --     88.1867                97.3008               123.0906
 Red. masses --      2.3352                 2.5134                 2.4501
 Frc consts  --      0.0107                 0.0140                 0.0219
 IR Inten    --      4.6997                 5.4667                 3.2938

                      7                      8                      9
                      A                      A                      A
 Frequencies --    138.9238               153.6436               159.0521
 Red. masses --      3.0268                 2.5740                 2.0696
 Frc consts  --      0.0344                 0.0358                 0.0308
 IR Inten    --      3.8153                 3.1155                 1.5854

                     10                     11                     12
                      A                      A                      A
 Frequencies --    188.4865               200.7035               217.4307
 Red. masses --      2.1328                 1.3384                 2.3288
 Frc consts  --      0.0446                 0.0318                 0.0649
 IR Inten    --      4.0297                 3.0311                 1.0265

                     13                     14                     15
                      A                      A                      A
 Frequencies --    234.6657               247.6989               254.1432
 Red. masses --      1.2997                 1.2540                 2.4119
 Frc consts  --      0.0422                 0.0453                 0.0918
 IR Inten    --      5.8937                 1.6887                 7.2402

                     16                     17                     18
                      A                      A                      A
 Frequencies --    285.0434               324.9408               330.2349
 Red. masses --      3.0547                 4.0527                 4.6190
 Frc consts  --      0.1462                 0.2521                 0.2968
 IR Inten    --      2.8517                17.9801                 9.9640

                     19                     20                     21
                      A                      A                      A
 Frequencies --    336.9961               357.1926               395.4628
 Red. masses --      4.4396                 3.7612                 4.3866
 Frc consts  --      0.2971                 0.2827                 0.4042
 IR Inten    --      1.7900                 1.1949                13.4293

                     22                     23                     24
                      A                      A                      A
 Frequencies --    427.8520               505.8897               515.6972
 Red. masses --      4.3441                 4.2834                 4.4573
 Frc consts  --      0.4685                 0.6459                 0.6984
 IR Inten    --      2.1175                10.4587                21.5138

                     25                     26                     27
                      A                      A                      A
 Frequencies --    549.4784               593.3887               619.0262
 Red. masses --      4.0071                 3.4947                 4.2665
 Frc consts  --      0.7128                 0.7250                 0.9632
 IR Inten    --     14.5285                11.0686                 0.9683

                     28                     29                     30
                      A                      A                      A
 Frequencies --    738.7856               778.7711               845.7967
 Red. masses --      4.9637                 2.9101                 2.6859
 Frc consts  --      1.5962                 1.0399                 1.1321
 IR Inten    --     86.8054                10.1701                 4.9036

                     31                     32                     33
                      A                      A                      A
 Frequencies --    884.1766               934.2855               955.9150
 Red. masses --      3.3427                 3.5851                 3.2977
 Frc consts  --      1.5396                 1.8438                 1.7754
 IR Inten    --     17.5944                38.7790                49.7744

                     34                     35                     36
                      A                      A                      A
 Frequencies --    981.4323               996.5386              1030.6487
 Red. masses --      4.3360                 3.8251                 2.8716
 Frc consts  --      2.4607                 2.2381                 1.7972
 IR Inten    --     23.1280                30.5585                69.8998

                     37                     38                     39
                      A                      A                      A
 Frequencies --   1036.4530              1075.2597              1107.4426
 Red. masses --      2.3972                 2.9525                 3.0362
 Frc consts  --      1.5173                 2.0113                 2.1939
 IR Inten    --     34.8181               115.2007                31.6363

                     40                     41                     42
                      A                      A                      A
 Frequencies --   1126.9372              1141.8309              1150.2663
 Red. masses --      2.0576                 3.6088                 4.3992
 Frc consts  --      1.5396                 2.7721                 3.4294
 IR Inten    --      9.7713                31.9256               231.4481

                     43                     44                     45
                      A                      A                      A
 Frequencies --   1158.2633              1174.7992              1187.0703
 Red. masses --      4.8037                 2.5666                 1.2735
 Frc consts  --      3.7970                 2.0871                 1.0573
 IR Inten    --    264.1217               127.0868                10.7178

                     46                     47                     48
                      A                      A                      A
 Frequencies --   1188.0269              1191.3300              1193.1479
 Red. masses --      1.3169                 1.3886                 1.3203
 Frc consts  --      1.0951                 1.1612                 1.1074
 IR Inten    --      6.5258                33.5801                 8.3036

                     49                     50                     51
                      A                      A                      A
 Frequencies --   1227.8868              1230.8353              1233.2604
 Red. masses --      1.4978                 1.6042                 1.6123
 Frc consts  --      1.3305                 1.4319                 1.4448
 IR Inten    --     26.7427                14.7073                23.9535

                     52                     53                     54
                      A                      A                      A
 Frequencies --   1234.5323              1243.2563              1263.0918
 Red. masses --      1.5911                 1.4925                 1.2916
 Frc consts  --      1.4288                 1.3592                 1.2141
 IR Inten    --     58.6992                41.6043                13.5642

                     55                     56                     57
                      A                      A                      A
 Frequencies --   1290.3264              1322.4653              1337.8053
 Red. masses --      1.3574                 1.2968                 1.2439
 Frc consts  --      1.3315                 1.3363                 1.3117
 IR Inten    --      4.4388                21.1113                 8.0629

                     58                     59                     60
                      A                      A                      A
 Frequencies --   1352.5045              1375.6028              1383.9576
 Red. masses --      1.2204                 1.3112                 1.2858
 Frc consts  --      1.3153                 1.4618                 1.4511
 IR Inten    --      4.6529                31.5486                52.1336

                     61                     62                     63
                      A                      A                      A
 Frequencies --   1408.8570              1432.8545              1444.2671
 Red. masses --      1.3981                 1.2858                 1.3184
 Frc consts  --      1.6350                 1.5553                 1.6202
 IR Inten    --     36.1496                 4.2451                28.5772

                     64                     65                     66
                      A                      A                      A
 Frequencies --   1497.8728              1500.0373              1501.3931
 Red. masses --      1.1203                 1.1426                 1.1076
 Frc consts  --      1.4810                 1.5148                 1.4711
 IR Inten    --      2.4541                 3.4255                 2.4995

                     67                     68                     69
                      A                      A                      A
 Frequencies --   1508.5483              1510.7247              1515.8676
 Red. masses --      1.1155                 1.0470                 1.0682
 Frc consts  --      1.4956                 1.4079                 1.4461
 IR Inten    --      2.2860                 9.4169                 3.4227

                     70                     71                     72
                      A                      A                      A
 Frequencies --   1520.8287              1524.0331              1526.2335
 Red. masses --      1.0688                 1.0584                 1.0590
 Frc consts  --      1.4565                 1.4484                 1.4534
 IR Inten    --     13.1862                11.7852                18.6787

                     73                     74                     75
                      A                      A                      A
 Frequencies --   1528.4527              1531.6794              1536.3916
 Red. masses --      1.0549                 1.0564                 1.0650
 Frc consts  --      1.4520                 1.4602                 1.4812
 IR Inten    --      7.0004                16.7504                29.8192

                     76                     77                     78
                      A                      A                      A
 Frequencies --   1551.8406              1642.5166              2973.2905
 Red. masses --      1.0922                 6.1008                 1.0782
 Frc consts  --      1.5497                 9.6975                 5.6159
 IR Inten    --      4.2696               181.4175                31.3004

                     79                     80                     81
                      A                      A                      A
 Frequencies --   3012.3218              3026.9354              3028.3224
 Red. masses --      1.0542                 1.0355                 1.0364
 Frc consts  --      5.6363                 5.5898                 5.5997
 IR Inten    --     29.8686                67.4425                34.3984

                     82                     83                     84
                      A                      A                      A
 Frequencies --   3037.8595              3039.1275              3052.9668
 Red. masses --      1.0377                 1.0386                 1.1075
 Frc consts  --      5.6425                 5.6517                 6.0818
 IR Inten    --     35.9492                53.8799                56.1101

                     85                     86                     87
                      A                      A                      A
 Frequencies --   3058.4628              3084.8180              3088.1257
 Red. masses --      1.0833                 1.1072                 1.1047
 Frc consts  --      5.9706                 6.2075                 6.2073
 IR Inten    --     26.8516                47.2371                63.7688

                     88                     89                     90
                      A                      A                      A
 Frequencies --   3107.2085              3115.3901              3119.8175
 Red. masses --      1.1039                 1.0996                 1.0854
 Frc consts  --      6.2797                 6.2882                 6.2247
 IR Inten    --     39.6988                37.8814                 1.8619

                     91                     92                     93
                      A                      A                      A
 Frequencies --   3165.6628              3167.2179              3169.3586
 Red. masses --      1.1002                 1.0984                 1.1023
 Frc consts  --      6.4961                 6.4916                 6.5238
 IR Inten    --     22.5515                21.5653                23.4114

                     94                     95                     96
                      A                      A                      A
 Frequencies --   3176.2789              3181.2644              3192.5036
 Red. masses --      1.0880                 1.1011                 1.0949
 Frc consts  --      6.4675                 6.5658                 6.5751
 IR Inten    --      0.5224                13.3504                 4.4688

 - Thermochemistry -
 -------------------
 Temperature   298.150 Kelvin.  Pressure   1.00000 Atm.
 Atom     1 has atomic number  6 and mass  12.00000

 Molecular mass:   219.12325 amu.
 Principal axes and moments of inertia in atomic units:
                           1         2         3
     Eigenvalues --  2378.460954196.067684737.11362
           X            0.99959  -0.02305   0.01693
           Y            0.02313   0.99972  -0.00443
           Z           -0.01683   0.00482   0.99985
 This molecule is an asymmetric top.
 Rotational symmetry number  1.
 Warning -- assumption of classical behavior for rotation
           may cause significant error
 Rotational temperatures (Kelvin)      0.03642     0.02064     0.01828
 Rotational constants (GHZ):           0.75879     0.43010     0.38098
 Zero-point vibrational energy     773776.4 (Joules/Mol)
                                  184.93701 (Kcal/Mol)
 Warning -- explicit consideration of  27 degrees of freedom as
           vibrations may cause significant error
 Vibrational temperatures:     50.52    77.46   114.83   126.88   139.99
          (Kelvin)            177.10   199.88   221.06   228.84   271.19
                              288.77   312.83   337.63   356.38   365.66
                              410.11   467.52   475.13   484.86   513.92
                              568.98   615.58   727.86   741.97   790.58
                              853.75   890.64  1062.95  1120.48  1216.91
                             1272.13  1344.23  1375.35  1412.06  1433.80
                             1482.87  1491.22  1547.06  1593.36  1621.41
                             1642.84  1654.98  1666.48  1690.27  1707.93
                             1709.31  1714.06  1716.67  1766.66  1770.90
                             1774.39  1776.22  1788.77  1817.31  1856.49
                             1902.73  1924.80  1945.95  1979.19  1991.21
                             2027.03  2061.56  2077.98  2155.10  2158.22
                             2160.17  2170.46  2173.60  2181.00  2188.13
                             2192.74  2195.91  2199.10  2203.74  2210.52
                             2232.75  2363.22  4277.90  4334.06  4355.08
                             4357.08  4370.80  4372.63  4392.54  4400.45
                             4438.37  4443.12  4470.58  4482.35  4488.72
                             4554.68  4556.92  4560.00  4569.96  4577.13
                             4593.30

 Zero-point correction=                           0.294716 (Hartree/Particle)
 Thermal correction to Energy=                    0.311745
 Thermal correction to Enthalpy=                  0.312690
 Thermal correction to Gibbs Free Energy=         0.250107
 Sum of electronic and zero-point Energies=           -768.021104
 Sum of electronic and thermal Energies=              -768.004075
 Sum of electronic and thermal Enthalpies=            -768.003131
 Sum of electronic and thermal Free Energies=         -768.065713

                     E (Thermal)             CV                S
                      KCal/Mol        Cal/Mol-Kelvin    Cal/Mol-Kelvin
 Total                  195.623             61.485            131.717
 Electronic               0.000              0.000              0.000
 Translational            0.889              2.981             42.056
 Rotational               0.889              2.981             32.225
 Vibrational            193.846             55.523             57.435
 Vibration     1          0.594              1.982              5.517
 Vibration     2          0.596              1.976              4.671
 Vibration     3          0.600              1.963              3.896
 Vibration     4          0.601              1.957              3.700
 Vibration     5          0.603              1.951              3.508
 Vibration     6          0.610              1.930              3.051
 Vibration     7          0.615              1.914              2.819
 Vibration     8          0.619              1.899              2.627
 Vibration     9          0.621              1.892              2.561
 Vibration    10          0.633              1.856              2.243
 Vibration    11          0.638              1.839              2.127
 Vibration    12          0.646              1.815              1.980
 Vibration    13          0.654              1.788              1.843
 Vibration    14          0.661              1.767              1.747
 Vibration    15          0.665              1.756              1.702
 Vibration    16          0.683              1.701              1.503
 Vibration    17          0.709              1.626              1.285
 Vibration    18          0.713              1.615              1.259
 Vibration    19          0.718              1.602              1.226
 Vibration    20          0.732              1.560              1.134
 Vibration    21          0.762              1.480              0.979
 Vibration    22          0.789              1.410              0.866
 Vibration    23          0.861              1.237              0.644
 Vibration    24          0.871              1.215              0.620
 Vibration    25          0.905              1.141              0.545
 Vibration    26          0.951              1.046              0.461
 Vibration    27          0.979              0.992              0.418

                           ! Non-Optimized Parameters !
 Normal termination of Gaussian 16 at Fri May 24 08:59:28 2019.
