 Gaussian 16, Revision A.03,
 Gaussian 16:  ES64L-G16RevA.03 25-Dec-2016

 -------------------------------------------------------------------
 #p b3lyp 6-31g* opt freq=noraman scrf=(pcm,solvent=tetrahydrofuran)
 -------------------------------------------------------------------

 -----
 title
 -----
 Symbolic Z-matrix:
 Charge =  1 Multiplicity = 1

 SCF Done:  E(RB3LYP) =  -768.326655025     A.U. after   14 cycles
 Optimization completed.
    -- Stationary point found.
 Normal termination of Gaussian 16 at Fri May 24 08:33:41 2019.

 --------------------------------------------------------------------
 #P Geom=AllCheck Guess=TCheck SCRF=Check GenChk RB3LYP/6-31G(d) Freq
 --------------------------------------------------------------------

 Structure from the checkpoint file:  "/scratch/Gau-7176.chk"
 -----
 title
 -----
 Charge =  1 Multiplicity = 1

                         Standard orientation:
 ---------------------------------------------------------------------
 Center     Atomic      Atomic             Coordinates (Angstroms)
 Number     Number       Type             X           Y           Z
 ---------------------------------------------------------------------
      1          6           0       -1.071969    0.561428   -0.239637
      2          6           0       -1.048292   -0.997644   -0.396562
      3          6           0       -0.063598   -1.336991   -1.457477
      4          6           0        1.437660    0.475708   -0.845217
      5          6           0        0.352808    1.016965    0.124942
      6          1           0       -0.262362   -2.161668   -2.143995
      7          1           0       -0.673616   -1.451428    0.538799
      8          1           0       -1.378363    0.965171   -1.209860
      9          1           0        1.716474    1.222189   -1.588041
     10          1           0        0.590113    0.611246    1.110984
     11          8           0        0.969861   -0.672038   -1.712796
     12          8           0       -2.273717   -1.528191   -0.805348
     13          8           0       -2.064899    0.987974    0.652277
     14          8           0        0.517619    2.410699    0.268305
     15          6           0        2.660796   -0.073996   -0.132640
     16          1           0        3.109295    0.755468    0.436208
     17          1           0        3.401415   -0.430891   -0.862203
     18          8           0        2.211821   -1.115696    0.704868
     19          6           0       -3.061213   -2.140663    0.224963
     20          1           0       -2.496284   -2.930647    0.734755
     21          1           0       -3.404157   -1.395187    0.948592
     22          1           0       -3.922232   -2.579835   -0.280339
     23          6           0       -1.803666    0.879197    2.056214
     24          1           0       -1.041124    1.596394    2.375966
     25          1           0       -2.749053    1.116309    2.546262
     26          1           0       -1.501531   -0.135488    2.347641
     27          6           0       -0.044172    3.248330   -0.747340
     28          1           0        0.288259    2.964467   -1.754411
     29          1           0       -1.138486    3.241008   -0.707641
     30          1           0        0.317471    4.254637   -0.530865
     31          6           0        3.258997   -1.732541    1.451268
     32          1           0        2.794628   -2.514380    2.054476
     33          1           0        4.006563   -2.181014    0.783724
     34          1           0        3.753397   -1.007100    2.110411
 ---------------------------------------------------------------------

 SCF Done:  E(RB3LYP) =  -768.326655025     A.U. after    1 cycles

 The electronic state is 1-A.
 Alpha  occ. eigenvalues --  -19.32829 -19.20488 -19.19718 -19.19532 -19.19404
 Alpha  occ. eigenvalues --  -10.39413 -10.32257 -10.31692 -10.29845 -10.29537
 Alpha  occ. eigenvalues --  -10.28254 -10.25698 -10.25416 -10.25289 -10.25214
 Alpha  occ. eigenvalues --   -1.21557  -1.09638  -1.08223  -1.07465  -1.06539
 Alpha  occ. eigenvalues --   -0.87221  -0.85925  -0.77516  -0.75706  -0.74165
 Alpha  occ. eigenvalues --   -0.71457  -0.69392  -0.67819  -0.65675  -0.62030
 Alpha  occ. eigenvalues --   -0.60195  -0.58732  -0.56278  -0.54772  -0.53974
 Alpha  occ. eigenvalues --   -0.52830  -0.51908  -0.51142  -0.50592  -0.49006
 Alpha  occ. eigenvalues --   -0.48395  -0.47762  -0.46905  -0.45806  -0.45341
 Alpha  occ. eigenvalues --   -0.43954  -0.43362  -0.42610  -0.42115  -0.40914
 Alpha  occ. eigenvalues --   -0.40448  -0.37094  -0.36548  -0.36136  -0.34400
 Alpha  occ. eigenvalues --   -0.32387  -0.30732  -0.29808  -0.28498
 Alpha virt. eigenvalues --   -0.14995  -0.00146   0.04218   0.05563   0.06206
 Alpha virt. eigenvalues --    0.06909   0.07672   0.08663   0.09601   0.10383
 Alpha virt. eigenvalues --    0.11113   0.11887   0.12364   0.12689   0.13079

 Mulliken charges:
               1
     1  C    0.108085
     2  C    0.028099
     3  C    0.300898
     4  C    0.041816
     5  C    0.086600
     6  H    0.278388
     7  H    0.234676
     8  H    0.192056
     9  H    0.240721
    10  H    0.203228
    11  O   -0.303095
    12  O   -0.479772
    13  O   -0.472457
    14  O   -0.483300
    15  C   -0.033443
    16  H    0.190881
    17  H    0.184709
    18  O   -0.492440
    19  C   -0.231617
    20  H    0.169392
    21  H    0.180280
    22  H    0.191873
    23  C   -0.245779
    24  H    0.180923
    25  H    0.191470
    26  H    0.158921
    27  C   -0.241289
    28  H    0.158071
    29  H    0.177327
    30  H    0.189942
    31  C   -0.212460
    32  H    0.180728
    33  H    0.162476
    34  H    0.164094
 Sum of Mulliken charges =   1.00000

 Dipole moment (field-independent basis, Debye):
    X=              2.6131    Y=             -3.0993    Z=             -1.7648  Tot=              4.4214
 Quadrupole moment (field-independent basis, Debye-Ang):
   XX=            -68.2296   YY=            -71.0188   ZZ=            -74.2180
   XY=              2.6122   XZ=             -4.0125   YZ=             -3.4648

  Exact polarizability: 154.709   5.227 149.098  -9.567   3.533 131.930
 Approx polarizability: 172.394   4.885 165.621 -10.631   6.367 158.944

                      1                      2                      3
                      A                      A                      A
 Frequencies --      9.3081                46.8863                59.9900
 Red. masses --      4.0768                 3.2142                 2.8624
 Frc consts  --      0.0002                 0.0042                 0.0061
 IR Inten    --      2.4159                 0.1753                 0.0748

                      4                      5                      6
                      A                      A                      A
 Frequencies --     76.5047                99.8192               116.9255
 Red. masses --      2.5435                 2.2092                 2.2336
 Frc consts  --      0.0088                 0.0130                 0.0180
 IR Inten    --     10.8790                 4.7699                 3.3108

                      7                      8                      9
                      A                      A                      A
 Frequencies --    125.1760               150.3518               169.1219
 Red. masses --      2.4739                 2.2166                 2.0116
 Frc consts  --      0.0228                 0.0295                 0.0339
 IR Inten    --      2.7174                 8.6834                 2.1121

                     10                     11                     12
                      A                      A                      A
 Frequencies --    173.5527               179.2271               208.8238
 Red. masses --      1.9502                 1.4696                 1.2315
 Frc consts  --      0.0346                 0.0278                 0.0316
 IR Inten    --      2.0941                 0.7628                 1.7044

                     13                     14                     15
                      A                      A                      A
 Frequencies --    226.0722               237.5998               249.7552
 Red. masses --      1.6295                 3.4428                 3.5655
 Frc consts  --      0.0491                 0.1145                 0.1310
 IR Inten    --      5.5125                 9.0803                 0.7835

                     16                     17                     18
                      A                      A                      A
 Frequencies --    279.8168               295.5738               298.3800
 Red. masses --      3.1344                 3.3544                 3.2384
 Frc consts  --      0.1446                 0.1727                 0.1699
 IR Inten    --     19.0743                 1.5640                 1.9975

                     19                     20                     21
                      A                      A                      A
 Frequencies --    348.1325               376.6697               414.4980
 Red. masses --      3.4171                 4.2939                 4.1292
 Frc consts  --      0.2440                 0.3589                 0.4180
 IR Inten    --      4.1752                 3.2021                16.4626

                     22                     23                     24
                      A                      A                      A
 Frequencies --    437.9336               473.3527               495.1803
 Red. masses --      4.2715                 4.0349                 3.8423
 Frc consts  --      0.4827                 0.5327                 0.5551
 IR Inten    --      9.2671                 0.6269                16.6234

                     25                     26                     27
                      A                      A                      A
 Frequencies --    558.9280               597.2581               654.2439
 Red. masses --      4.0956                 3.1859                 4.5471
 Frc consts  --      0.7538                 0.6696                 1.1467
 IR Inten    --     26.5081                19.5182                14.9929

                     28                     29                     30
                      A                      A                      A
 Frequencies --    718.8878               757.0254               845.9377
 Red. masses --      4.1188                 4.0613                 2.2331
 Frc consts  --      1.2541                 1.3713                 0.9415
 IR Inten    --     65.8703                61.6233                44.6350

                     31                     32                     33
                      A                      A                      A
 Frequencies --    906.4096               924.2866               960.6127
 Red. masses --      3.2933                 4.3626                 3.7685
 Frc consts  --      1.5942                 2.1959                 2.0489
 IR Inten    --     12.6670                 8.8438                71.8550

                     34                     35                     36
                      A                      A                      A
 Frequencies --    986.8630              1012.9084              1026.5673
 Red. masses --      3.3565                 2.8676                 4.0823
 Frc consts  --      1.9260                 1.7335                 2.5347
 IR Inten    --     12.5168                14.8754                68.4616

                     37                     38                     39
                      A                      A                      A
 Frequencies --   1047.0699              1071.4172              1107.1741
 Red. masses --      2.9324                 3.0119                 2.4097
 Frc consts  --      1.8942                 2.0371                 1.7404
 IR Inten    --     27.5818               119.6134                 1.5878

                     40                     41                     42
                      A                      A                      A
 Frequencies --   1112.9061              1141.5171              1156.9792
 Red. masses --      2.8955                 3.5256                 3.2071
 Frc consts  --      2.1130                 2.7067                 2.5294
 IR Inten    --     23.2373               290.6125                94.8981

                     43                     44                     45
                      A                      A                      A
 Frequencies --   1160.3568              1173.6717              1178.2353
 Red. masses --      2.8621                 2.0179                 1.4162
 Frc consts  --      2.2705                 1.6377                 1.1584
 IR Inten    --     96.7110               134.6041                26.8921

                     46                     47                     48
                      A                      A                      A
 Frequencies --   1185.1185              1188.0366              1190.4120
 Red. masses --      1.3423                 1.3292                 1.4652
 Frc consts  --      1.1108                 1.1054                 1.2233
 IR Inten    --      9.4052                12.9846                11.1875

                     49                     50                     51
                      A                      A                      A
 Frequencies --   1221.0696              1228.3245              1228.9878
 Red. masses --      1.6234                 1.6452                 1.8446
 Frc consts  --      1.4261                 1.4625                 1.6416
 IR Inten    --     56.2188                62.6435                56.0875

                     52                     53                     54
                      A                      A                      A
 Frequencies --   1235.0563              1245.4771              1268.1393
 Red. masses --      1.6246                 1.5051                 1.1321
 Frc consts  --      1.4600                 1.3756                 1.0727
 IR Inten    --     98.4102                 6.7588                30.6552

                     55                     56                     57
                      A                      A                      A
 Frequencies --   1300.6609              1316.0654              1337.7622
 Red. masses --      1.3569                 1.2967                 1.3314
 Frc consts  --      1.3525                 1.3232                 1.4038
 IR Inten    --     36.4830                20.5140                10.5359

                     58                     59                     60
                      A                      A                      A
 Frequencies --   1360.0386              1403.7974              1411.9535
 Red. masses --      1.3366                 1.4039                 1.2735
 Frc consts  --      1.4567                 1.6301                 1.4958
 IR Inten    --     11.7404                61.3571                 5.6021

                     61                     62                     63
                      A                      A                      A
 Frequencies --   1424.2101              1431.9809              1460.3678
 Red. masses --      1.3940                 1.2106                 1.2053
 Frc consts  --      1.6660                 1.4626                 1.5145
 IR Inten    --     10.9203                18.5960                16.4392

                     64                     65                     66
                      A                      A                      A
 Frequencies --   1495.6190              1497.2884              1498.7959
 Red. masses --      1.1375                 1.1414                 1.1467
 Frc consts  --      1.4991                 1.5077                 1.5176
 IR Inten    --      1.7476                 4.1714                 0.7530

                     67                     68                     69
                      A                      A                      A
 Frequencies --   1502.1102              1508.2924              1508.7413
 Red. masses --      1.1221                 1.0469                 1.0587
 Frc consts  --      1.4918                 1.4032                 1.4199
 IR Inten    --      1.3364                 9.6794                 9.1107

                     70                     71                     72
                      A                      A                      A
 Frequencies --   1509.9986              1513.7808              1521.1804
 Red. masses --      1.0693                 1.0544                 1.0606
 Frc consts  --      1.4365                 1.4236                 1.4460
 IR Inten    --      3.9112                14.2020                15.2066

                     73                     74                     75
                      A                      A                      A
 Frequencies --   1529.0379              1533.6588              1538.4254
 Red. masses --      1.0487                 1.0501                 1.0901
 Frc consts  --      1.4446                 1.4552                 1.5201
 IR Inten    --     11.5529                16.9190                 7.1766

                     76                     77                     78
                      A                      A                      A
 Frequencies --   1541.8444              1649.8139              2984.0911
 Red. masses --      1.0514                 6.9310                 1.0788
 Frc consts  --      1.4727                11.1152                 5.6598
 IR Inten    --     12.4633               258.6443                20.7018

                     79                     80                     81
                      A                      A                      A
 Frequencies --   3019.7607              3030.9519              3036.5456
 Red. masses --      1.0543                 1.0371                 1.0385
 Frc consts  --      5.6644                 5.6132                 5.6417
 IR Inten    --     30.7459                66.4275                41.5577

                     82                     83                     84
                      A                      A                      A
 Frequencies --   3039.5518              3049.0622              3063.8507
 Red. masses --      1.0386                 1.0360                 1.1063
 Frc consts  --      5.6533                 5.6747                 6.1185
 IR Inten    --     33.1648                50.8922                41.3245

                     85                     86                     87
                      A                      A                      A
 Frequencies --   3089.5134              3093.1294              3109.9488
 Red. masses --      1.1074                 1.0864                 1.1006
 Frc consts  --      6.2278                 6.1240                 6.2718
 IR Inten    --     46.8988                 6.3870                41.4414

                     88                     89                     90
                      A                      A                      A
 Frequencies --   3114.0957              3122.6020              3127.5900
 Red. masses --      1.0983                 1.0865                 1.1029
 Frc consts  --      6.2753                 6.2417                 6.3562
 IR Inten    --     47.7401                11.7077                30.7856

                     91                     92                     93
                      A                      A                      A
 Frequencies --   3164.8625              3167.9469              3169.6463
 Red. masses --      1.1008                 1.1013                 1.1019
 Frc consts  --      6.4963                 6.5120                 6.5224
 IR Inten    --     23.1386                20.4932                18.2337

                     94                     95                     96
                      A                      A                      A
 Frequencies --   3170.4392              3176.9866              3199.7209
 Red. masses --      1.0894                 1.1038                 1.0946
 Frc consts  --      6.4520                 6.5639                 6.6028
 IR Inten    --      1.6349                19.2562                 2.4018

 - Thermochemistry -
 -------------------
 Temperature   298.150 Kelvin.  Pressure   1.00000 Atm.
 Atom     1 has atomic number  6 and mass  12.00000

 Molecular mass:   219.12325 amu.
 Principal axes and moments of inertia in atomic units:
                           1         2         3
     Eigenvalues --  2752.625493619.362914683.13758
           X            0.99999   0.00042  -0.00324
           Y           -0.00056   0.99905  -0.04352
           Z            0.00322   0.04352   0.99905
 This molecule is an asymmetric top.
 Rotational symmetry number  1.
 Warning -- assumption of classical behavior for rotation
           may cause significant error
 Rotational temperatures (Kelvin)      0.03147     0.02393     0.01849
 Rotational constants (GHZ):           0.65564     0.49864     0.38537
 Zero-point vibrational energy     773770.0 (Joules/Mol)
                                  184.93548 (Kcal/Mol)
 Warning -- explicit consideration of  26 degrees of freedom as
           vibrations may cause significant error
 Vibrational temperatures:     13.39    67.46    86.31   110.07   143.62
          (Kelvin)            168.23   180.10   216.32   243.33   249.70
                              257.87   300.45   325.27   341.85   359.34
                              402.59   425.26   429.30   500.89   541.94
                              596.37   630.09   681.05   712.45   804.17
                              859.32   941.31  1034.32  1089.19  1217.12
                             1304.12  1329.84  1382.11  1419.88  1457.35
                             1477.00  1506.50  1541.53  1592.98  1601.22
                             1642.39  1664.64  1669.49  1688.65  1695.22
                             1705.12  1709.32  1712.74  1756.85  1767.29
                             1768.24  1776.97  1791.96  1824.57  1871.36
                             1893.52  1924.74  1956.79  2019.75  2031.49
                             2049.12  2060.30  2101.14  2151.86  2154.26
                             2156.43  2161.20  2170.10  2170.74  2172.55
                             2177.99  2188.64  2199.94  2206.59  2213.45
                             2218.37  2373.71  4293.44  4344.76  4360.86
                             4368.91  4373.24  4386.92  4408.20  4445.12
                             4450.32  4474.52  4480.49  4492.73  4499.90
                             4553.53  4557.97  4560.41  4561.55  4570.98
                             4603.68

 Zero-point correction=                           0.294713 (Hartree/Particle)
 Thermal correction to Energy=                    0.312045
 Thermal correction to Enthalpy=                  0.312989
 Thermal correction to Gibbs Free Energy=         0.248163
 Sum of electronic and zero-point Energies=           -768.031942
 Sum of electronic and thermal Energies=              -768.014610
 Sum of electronic and thermal Enthalpies=            -768.013666
 Sum of electronic and thermal Free Energies=         -768.078492

                     E (Thermal)             CV                S
                      KCal/Mol        Cal/Mol-Kelvin    Cal/Mol-Kelvin
 Total                  195.811             61.657            136.437
 Electronic               0.000              0.000              0.000
 Translational            0.889              2.981             42.056
 Rotational               0.889              2.981             32.212
 Vibrational            194.034             55.695             62.169
 Vibration     1          0.593              1.987              8.154
 Vibration     2          0.595              1.979              4.945
 Vibration     3          0.597              1.973              4.458
 Vibration     4          0.599              1.965              3.979
 Vibration     5          0.604              1.949              3.458
 Vibration     6          0.608              1.935              3.151
 Vibration     7          0.610              1.928              3.019
 Vibration     8          0.618              1.902              2.668
 Vibration     9          0.625              1.880              2.445
 Vibration    10          0.627              1.875              2.397
 Vibration    11          0.629              1.868              2.336
 Vibration    12          0.642              1.827              2.054
 Vibration    13          0.650              1.801              1.910
 Vibration    14          0.656              1.783              1.821
 Vibration    15          0.663              1.763              1.732
 Vibration    16          0.680              1.711              1.535
 Vibration    17          0.690              1.682              1.442
 Vibration    18          0.691              1.677              1.426
 Vibration    19          0.726              1.579              1.175
 Vibration    20          0.747              1.520              1.053
 Vibration    21          0.778              1.439              0.911
 Vibration    22          0.798              1.387              0.833
 Vibration    23          0.830              1.309              0.728
 Vibration    24          0.851              1.261              0.670
 Vibration    25          0.915              1.120              0.526
 Vibration    26          0.955              1.038              0.454

 Optimization completed on the basis of negligible forces.
    -- Stationary point found.
 Normal termination of Gaussian 16 at Fri May 24 08:53:13 2019.
