 Gaussian 16, Revision A.03,
 Gaussian 16:  ES64L-G16RevA.03 25-Dec-2016

 ----------------------------------------------------------------------
 #p b3lyp 6-31g* opt=(maxstep=1,calcfc) freq=noraman scrf=(pcm,solvent=
 tetrahydrofuran)
 ----------------------------------------------------------------------

 -----
 title
 -----
 Symbolic Z-matrix:
 Charge =  1 Multiplicity = 1

 SCF Done:  E(RB3LYP) =  -768.323561862     A.U. after   14 cycles
 Optimization completed on the basis of negligible forces.
    -- Stationary point found.
 Normal termination of Gaussian 16 at Sat May 25 18:40:20 2019.

 --------------------------------------------------------------------
 #P Geom=AllCheck Guess=TCheck SCRF=Check GenChk RB3LYP/6-31G(d) Freq
 --------------------------------------------------------------------

 Structure from the checkpoint file:  "/scratch/Gau-121882.chk"
 -----
 title
 -----
 Charge =  1 Multiplicity = 1

                         Standard orientation:
 ---------------------------------------------------------------------
 Center     Atomic      Atomic             Coordinates (Angstroms)
 Number     Number       Type             X           Y           Z
 ---------------------------------------------------------------------
      1          6           0        1.240654    0.315238    0.079401
      2          6           0        1.306305   -1.210995   -0.122273
      3          6           0        0.029110   -1.904475    0.206205
      4          6           0       -1.321308    0.132299    0.175235
      5          6           0       -0.107447    0.839929   -0.463126
      6          1           0        0.033830   -2.980282    0.386419
      7          1           0        1.443720   -1.386870   -1.206596
      8          1           0        1.340549    0.519529    1.153634
      9          1           0       -1.474431    0.418366    1.217187
     10          1           0       -0.116911    0.644351   -1.542344
     11          8           0       -1.095088   -1.357773    0.315003
     12          8           0        2.307695   -1.826406    0.640643
     13          8           0        2.331568    0.831838   -0.643039
     14          8           0       -0.258266    2.243144   -0.371338
     15          6           0       -2.617812    0.316181   -0.611000
     16          1           0       -2.558605   -0.230207   -1.563302
     17          1           0       -2.665384    1.386332   -0.842445
     18          8           0       -3.767678   -0.015422    0.125219
     19          6           0        3.468143   -2.243719   -0.098979
     20          1           0        4.171767   -2.623846    0.642462
     21          1           0        3.217045   -3.042008   -0.807092
     22          1           0        3.905995   -1.393594   -0.630432
     23          6           0        2.923557    2.027471   -0.127817
     24          1           0        3.162037    1.918979    0.938169
     25          1           0        3.849277    2.170523   -0.688318
     26          1           0        2.271576    2.893276   -0.276523
     27          6           0       -0.366399    2.838350    0.929319
     28          1           0        0.437679    2.524860    1.603577
     29          1           0       -0.284533    3.913068    0.761288
     30          1           0       -1.335801    2.630421    1.396711
     31          6           0       -4.268993   -1.335031   -0.082050
     32          1           0       -4.439758   -1.528318   -1.149774
     33          1           0       -5.222902   -1.386649    0.446643
     34          1           0       -3.595842   -2.102478    0.319333
 ---------------------------------------------------------------------

 SCF Done:  E(RB3LYP) =  -768.323561862     A.U. after    1 cycles

 The electronic state is 1-A.
 Alpha  occ. eigenvalues --  -19.33342 -19.20869 -19.19946 -19.19161 -19.18224
 Alpha  occ. eigenvalues --  -10.39899 -10.32044 -10.31925 -10.29816 -10.29539
 Alpha  occ. eigenvalues --  -10.27862 -10.25714 -10.25701 -10.24912 -10.24661
 Alpha  occ. eigenvalues --   -1.21913  -1.09678  -1.08229  -1.06518  -1.06340
 Alpha  occ. eigenvalues --   -0.87235  -0.86133  -0.77541  -0.75599  -0.73816
 Alpha  occ. eigenvalues --   -0.71474  -0.68968  -0.68312  -0.65433  -0.62791
 Alpha  occ. eigenvalues --   -0.60691  -0.58928  -0.55782  -0.54960  -0.53653
 Alpha  occ. eigenvalues --   -0.52413  -0.51560  -0.50943  -0.49996  -0.49625
 Alpha  occ. eigenvalues --   -0.48563  -0.47993  -0.46285  -0.45888  -0.45735
 Alpha  occ. eigenvalues --   -0.44343  -0.43242  -0.42278  -0.41617  -0.40969
 Alpha  occ. eigenvalues --   -0.40028  -0.37157  -0.36003  -0.35088  -0.34797
 Alpha  occ. eigenvalues --   -0.32077  -0.31510  -0.29572  -0.27708
 Alpha virt. eigenvalues --   -0.15409  -0.00283   0.04786   0.04871   0.06860
 Alpha virt. eigenvalues --    0.07073   0.07786   0.08503   0.08892   0.10052
 Alpha virt. eigenvalues --    0.11197   0.11580   0.12028   0.12446   0.13009

 Mulliken charges:
               1
     1  C    0.118160
     2  C    0.036043
     3  C    0.305875
     4  C    0.052125
     5  C    0.094381
     6  H    0.280478
     7  H    0.243177
     8  H    0.178332
     9  H    0.235779
    10  H    0.191841
    11  O   -0.314979
    12  O   -0.477941
    13  O   -0.487373
    14  O   -0.479913
    15  C   -0.047160
    16  H    0.174250
    17  H    0.204877
    18  O   -0.472276
    19  C   -0.231987
    20  H    0.191204
    21  H    0.171359
    22  H    0.183664
    23  C   -0.226272
    24  H    0.161677
    25  H    0.182147
    26  H    0.173564
    27  C   -0.246292
    28  H    0.166005
    29  H    0.195711
    30  H    0.172123
    31  C   -0.221140
    32  H    0.158321
    33  H    0.180097
    34  H    0.154145
 Sum of Mulliken charges =   1.00000

 Dipole moment (field-independent basis, Debye):
    X=              1.1320    Y=             -4.3673    Z=              0.2387  Tot=              4.5179
 Quadrupole moment (field-independent basis, Debye-Ang):
   XX=            -69.4322   YY=            -64.4438   ZZ=            -84.8257
   XY=              2.5761   XZ=              1.5552   YZ=              7.3369

  Exact polarizability: 172.386  -2.482 153.342  -2.446   1.640 112.869
 Approx polarizability: 180.923  -4.064 168.453  -5.238  -0.263 143.591

                      1                      2                      3
                      A                      A                      A
 Frequencies --     33.7766                50.7910                56.3965
 Red. masses --      3.8686                 2.9115                 2.8706
 Frc consts  --      0.0026                 0.0044                 0.0054
 IR Inten    --      1.4532                 4.1395                 1.5897

                      4                      5                      6
                      A                      A                      A
 Frequencies --     62.9224                77.6362                85.2599
 Red. masses --      2.8873                 2.4700                 2.1749
 Frc consts  --      0.0067                 0.0088                 0.0093
 IR Inten    --      4.8264                 2.9374                 4.5321

                      7                      8                      9
                      A                      A                      A
 Frequencies --     99.2409               140.0673               154.4352
 Red. masses --      2.0176                 1.8657                 1.4948
 Frc consts  --      0.0117                 0.0216                 0.0210
 IR Inten    --      2.5101                 4.6553                 0.1475

                     10                     11                     12
                      A                      A                      A
 Frequencies --    165.6717               177.1038               198.4551
 Red. masses --      1.8014                 1.3606                 2.0915
 Frc consts  --      0.0291                 0.0251                 0.0485
 IR Inten    --      2.3831                 0.4307                 7.8306

                     13                     14                     15
                      A                      A                      A
 Frequencies --    205.5584               214.3863               257.7554
 Red. masses --      1.9601                 2.0796                 4.4030
 Frc consts  --      0.0488                 0.0563                 0.1724
 IR Inten    --      9.0963                 4.1475                 8.9204

                     16                     17                     18
                      A                      A                      A
 Frequencies --    274.5605               284.7777               303.3908
 Red. masses --      4.7314                 4.4390                 4.0437
 Frc consts  --      0.2101                 0.2121                 0.2193
 IR Inten    --      5.5973                 1.5517                13.7329

                     19                     20                     21
                      A                      A                      A
 Frequencies --    357.8045               386.4304               423.6938
 Red. masses --      3.8969                 4.1143                 3.6180
 Frc consts  --      0.2939                 0.3620                 0.3827
 IR Inten    --      3.3696                 0.3920                11.0977

                     22                     23                     24
                      A                      A                      A
 Frequencies --    445.5679               460.7781               489.3831
 Red. masses --      3.0875                 3.1234                 3.6082
 Frc consts  --      0.3611                 0.3907                 0.5091
 IR Inten    --      4.9613                15.8106                15.5298

                     25                     26                     27
                      A                      A                      A
 Frequencies --    529.5809               574.2064               590.8249
 Red. masses --      3.9384                 3.6053                 3.4791
 Frc consts  --      0.6508                 0.7004                 0.7155
 IR Inten    --      3.5873                19.1918                38.9437

                     28                     29                     30
                      A                      A                      A
 Frequencies --    723.6518               731.3117               858.6494
 Red. masses --      3.6982                 3.8095                 1.7920
 Frc consts  --      1.1410                 1.2004                 0.7784
 IR Inten    --     61.6529                40.1875                 7.4850

                     31                     32                     33
                      A                      A                      A
 Frequencies --    912.7987               932.3231               967.6382
 Red. masses --      4.4844                 4.3081                 4.4385
 Frc consts  --      2.2014                 2.2063                 2.4486
 IR Inten    --     75.4328                58.3898                 7.8545

                     34                     35                     36
                      A                      A                      A
 Frequencies --    978.9866              1006.1386              1053.7492
 Red. masses --      4.7620                 2.9820                 2.3339
 Frc consts  --      2.6890                 1.7786                 1.5269
 IR Inten    --     12.0726                 4.6272                52.9054

                     37                     38                     39
                      A                      A                      A
 Frequencies --   1060.8149              1090.3243              1101.4045
 Red. masses --      3.7668                 3.9028                 3.1270
 Frc consts  --      2.4975                 2.7336                 2.2349
 IR Inten    --     85.8392                14.8094                54.6053

                     40                     41                     42
                      A                      A                      A
 Frequencies --   1130.7240              1151.0516              1153.1983
 Red. masses --      2.5868                 2.9460                 4.2304
 Frc consts  --      1.9486                 2.2997                 3.3146
 IR Inten    --     39.2972               188.5394                35.3190

                     43                     44                     45
                      A                      A                      A
 Frequencies --   1165.6580              1173.8507              1178.7008
 Red. masses --      3.7498                 2.6305                 1.3015
 Frc consts  --      3.0020                 2.1355                 1.0654
 IR Inten    --    401.5414                27.5182                 6.8099

                     46                     47                     48
                      A                      A                      A
 Frequencies --   1180.1175              1183.6886              1184.4399
 Red. masses --      1.2780                 1.3277                 1.3103
 Frc consts  --      1.0486                 1.0960                 1.0830
 IR Inten    --      7.2288                 3.8130                 1.1486

                     49                     50                     51
                      A                      A                      A
 Frequencies --   1219.0528              1223.2805              1228.1047
 Red. masses --      1.5183                 1.5755                 1.6528
 Frc consts  --      1.3294                 1.3891                 1.4687
 IR Inten    --     57.9033                43.2862                42.5418

                     52                     53                     54
                      A                      A                      A
 Frequencies --   1234.2297              1252.2965              1283.6004
 Red. masses --      1.6635                 1.5293                 1.5223
 Frc consts  --      1.4930                 1.4130                 1.4778
 IR Inten    --     14.3342                 8.4794                39.2605

                     55                     56                     57
                      A                      A                      A
 Frequencies --   1318.2163              1333.0416              1360.0368
 Red. masses --      1.2577                 1.3384                 1.2089
 Frc consts  --      1.2876                 1.4012                 1.3175
 IR Inten    --     37.2702                14.7761                34.5223

                     58                     59                     60
                      A                      A                      A
 Frequencies --   1367.8994              1368.4023              1401.1964
 Red. masses --      1.2100                 1.2925                 1.3413
 Frc consts  --      1.3340                 1.4259                 1.5516
 IR Inten    --     11.2646                28.2811                31.4673

                     61                     62                     63
                      A                      A                      A
 Frequencies --   1416.7506              1425.4445              1437.4414
 Red. masses --      1.3138                 1.3310                 1.2319
 Frc consts  --      1.5537                 1.5934                 1.4998
 IR Inten    --     17.0390                49.7579                 7.2840

                     64                     65                     66
                      A                      A                      A
 Frequencies --   1493.0061              1493.2553              1497.0814
 Red. masses --      1.0967                 1.1325                 1.1364
 Frc consts  --      1.4403                 1.4879                 1.5006
 IR Inten    --      1.4536                 0.7454                 4.9687

                     67                     68                     69
                      A                      A                      A
 Frequencies --   1502.5608              1508.1456              1508.9916
 Red. masses --      1.1144                 1.0946                 1.0833
 Frc consts  --      1.4823                 1.4668                 1.4534
 IR Inten    --      0.1200                11.0699                 8.7694

                     70                     71                     72
                      A                      A                      A
 Frequencies --   1517.2092              1517.6943              1523.2180
 Red. masses --      1.0655                 1.0879                 1.0608
 Frc consts  --      1.4451                 1.4764                 1.4501
 IR Inten    --      4.8669                 0.6826                17.9243

                     73                     74                     75
                      A                      A                      A
 Frequencies --   1523.9216              1528.8648              1529.5802
 Red. masses --      1.0496                 1.0484                 1.0596
 Frc consts  --      1.4361                 1.4438                 1.4607
 IR Inten    --     13.9185                17.9694                11.1925

                     76                     77                     78
                      A                      A                      A
 Frequencies --   1535.7740              1647.2318              2958.8917
 Red. masses --      1.0502                 6.7328                 1.0783
 Frc consts  --      1.4593                10.7636                 5.5625
 IR Inten    --     10.1055               304.0000                22.5973

                     79                     80                     81
                      A                      A                      A
 Frequencies --   3027.3803              3035.8187              3039.1050
 Red. masses --      1.0443                 1.0556                 1.0396
 Frc consts  --      5.6393                 5.7317                 5.6571
 IR Inten    --     45.2813                36.7057                45.7083

                     82                     83                     84
                      A                      A                      A
 Frequencies --   3047.1032              3053.8642              3056.5253
 Red. masses --      1.0509                 1.0340                 1.0646
 Frc consts  --      5.7489                 5.6818                 5.8600
 IR Inten    --     11.5224                54.5814                43.7676

                     85                     86                     87
                      A                      A                      A
 Frequencies --   3074.2223              3092.5020              3104.8729
 Red. masses --      1.0857                 1.1051                 1.0994
 Frc consts  --      6.0456                 6.2271                 6.2446
 IR Inten    --     22.1888                59.7707                 8.3662

                     88                     89                     90
                      A                      A                      A
 Frequencies --   3116.2095              3120.4300              3131.3559
 Red. masses --      1.1057                 1.0994                 1.1048
 Frc consts  --      6.3264                 6.3071                 6.3826
 IR Inten    --     49.5928                44.2672                24.8039

                     91                     92                     93
                      A                      A                      A
 Frequencies --   3144.4169              3157.5626              3163.3260
 Red. masses --      1.0871                 1.1007                 1.1042
 Frc consts  --      6.3330                 6.4658                 6.5103
 IR Inten    --      1.3057                31.5602                24.1218

                     94                     95                     96
                      A                      A                      A
 Frequencies --   3169.8682              3180.8407              3205.5113
 Red. masses --      1.1019                 1.1046                 1.0943
 Frc consts  --      6.5235                 6.5848                 6.6247
 IR Inten    --     17.3519                17.6699                 1.6384

 - Thermochemistry -
 -------------------
 Temperature   298.150 Kelvin.  Pressure   1.00000 Atm.
 Atom     1 has atomic number  6 and mass  12.00000

 Molecular mass:   219.12325 amu.
 Principal axes and moments of inertia in atomic units:
                           1         2         3
     Eigenvalues --  2201.904854429.862156234.68842
           X            0.99992   0.01216   0.00192
           Y           -0.01220   0.99964   0.02386
           Z           -0.00163  -0.02388   0.99971
 This molecule is an asymmetric top.
 Rotational symmetry number  1.
 Warning -- assumption of classical behavior for rotation
           may cause significant error
 Rotational temperatures (Kelvin)      0.03934     0.01955     0.01389
 Rotational constants (GHZ):           0.81963     0.40740     0.28947
 Zero-point vibrational energy     772159.6 (Joules/Mol)
                                  184.55058 (Kcal/Mol)
 Warning -- explicit consideration of  27 degrees of freedom as
           vibrations may cause significant error
 Vibrational temperatures:     48.60    73.08    81.14    90.53   111.70
          (Kelvin)            122.67   142.79   201.53   222.20   238.36
                              254.81   285.53   295.75   308.45   370.85
                              395.03   409.73   436.51   514.80   555.99
                              609.60   641.07   662.96   704.11   761.95
                              826.15   850.07  1041.17  1052.19  1235.40
                             1313.31  1341.41  1392.22  1408.54  1447.61
                             1516.11  1526.28  1568.73  1584.68  1626.86
                             1656.11  1659.20  1677.12  1688.91  1695.89
                             1697.93  1703.06  1704.14  1753.95  1760.03
                             1766.97  1775.78  1801.78  1846.81  1896.62
                             1917.95  1956.79  1968.10  1968.83  2016.01
                             2038.39  2050.90  2068.16  2148.10  2148.46
                             2153.97  2161.85  2169.89  2171.10  2182.93
                             2183.62  2191.57  2192.58  2199.70  2200.72
                             2209.64  2370.00  4257.19  4355.73  4367.87
                             4372.59  4384.10  4393.83  4397.66  4423.12
                             4449.42  4467.22  4483.53  4489.60  4505.32
                             4524.11  4543.03  4551.32  4560.73  4576.52
                             4612.02

 Zero-point correction=                           0.294100 (Hartree/Particle)
 Thermal correction to Energy=                    0.311739
 Thermal correction to Enthalpy=                  0.312684
 Thermal correction to Gibbs Free Energy=         0.247575
 Sum of electronic and zero-point Energies=           -768.029462
 Sum of electronic and thermal Energies=              -768.011823
 Sum of electronic and thermal Enthalpies=            -768.010878
 Sum of electronic and thermal Free Energies=         -768.075986

                     E (Thermal)             CV                S
                      KCal/Mol        Cal/Mol-Kelvin    Cal/Mol-Kelvin
 Total                  195.619             62.000            137.032
 Electronic               0.000              0.000              0.000
 Translational            0.889              2.981             42.056
 Rotational               0.889              2.981             32.475
 Vibrational            193.842             56.038             62.500
 Vibration     1          0.594              1.983              5.594
 Vibration     2          0.595              1.977              4.786
 Vibration     3          0.596              1.975              4.579
 Vibration     4          0.597              1.972              4.363
 Vibration     5          0.599              1.964              3.950
 Vibration     6          0.601              1.959              3.766
 Vibration     7          0.604              1.950              3.469
 Vibration     8          0.615              1.913              2.803
 Vibration     9          0.620              1.898              2.617
 Vibration    10          0.624              1.885              2.484
 Vibration    11          0.628              1.871              2.359
 Vibration    12          0.637              1.842              2.147
 Vibration    13          0.640              1.832              2.083
 Vibration    14          0.644              1.819              2.006
 Vibration    15          0.667              1.750              1.677
 Vibration    16          0.677              1.720              1.567
 Vibration    17          0.683              1.702              1.505
 Vibration    18          0.695              1.667              1.398
 Vibration    19          0.733              1.559              1.132
 Vibration    20          0.755              1.499              1.014
 Vibration    21          0.786              1.419              0.880
 Vibration    22          0.805              1.371              0.809
 Vibration    23          0.819              1.337              0.764
 Vibration    24          0.845              1.274              0.685
 Vibration    25          0.885              1.185              0.588
 Vibration    26          0.931              1.087              0.496
 Vibration    27          0.948              1.051              0.466

 Optimization completed on the basis of negligible forces.
    -- Stationary point found.
 Normal termination of Gaussian 16 at Sat May 25 18:49:43 2019.
