 Gaussian 16, Revision A.03,
 Gaussian 16:  ES64L-G16RevA.03 25-Dec-2016

 -------------------------------------------------------------------
 #p b3lyp 6-31g* opt freq=noraman scrf=(pcm,solvent=tetrahydrofuran)
 -------------------------------------------------------------------

 -----
 title
 -----
 Symbolic Z-matrix:
 Charge =  1 Multiplicity = 1

 SCF Done:  E(RB3LYP) =  -768.332888263     A.U. after   13 cycles
 Optimization completed.
    -- Stationary point found.
 Normal termination of Gaussian 16 at Fri May 24 08:35:25 2019.

 --------------------------------------------------------------------
 #P Geom=AllCheck Guess=TCheck SCRF=Check GenChk RB3LYP/6-31G(d) Freq
 --------------------------------------------------------------------

 Structure from the checkpoint file:  "/scratch/Gau-183497.chk"
 -----
 title
 -----
 Charge =  1 Multiplicity = 1

                         Standard orientation:
 ---------------------------------------------------------------------
 Center     Atomic      Atomic             Coordinates (Angstroms)
 Number     Number       Type             X           Y           Z
 ---------------------------------------------------------------------
      1          6           0       -0.852708    0.413772   -0.775163
      2          6           0       -1.268987    0.587923    0.710027
      3          6           0       -0.331647   -0.059043    1.684334
      4          6           0        1.190339   -0.895667   -0.016736
      5          6           0       -0.031408   -0.882070   -0.928493
      6          1           0       -0.586902   -0.054108    2.744695
      7          1           0       -1.256207    1.662816    0.946199
      8          1           0       -1.774979    0.341501   -1.363397
      9          1           0        1.575451   -1.912469    0.057862
     10          1           0        0.318596   -0.967004   -1.966349
     11          8           0        0.729005   -0.672578    1.413734
     12          8           0       -2.513201   -0.007541    1.010963
     13          8           0       -0.046983    1.481202   -1.215988
     14          8           0       -0.787541   -2.006671   -0.528478
     15          6           0        2.335508    0.065081   -0.282257
     16          1           0        2.024085    1.104024   -0.120646
     17          1           0        2.610301   -0.036314   -1.344803
     18          8           0        3.392358   -0.309180    0.570870
     19          6           0       -3.526718    0.895728    1.482088
     20          1           0       -3.251812    1.337099    2.446935
     21          1           0       -3.703164    1.691811    0.748946
     22          1           0       -4.429205    0.295318    1.600349
     23          6           0       -0.767367    2.636746   -1.649399
     24          1           0       -1.346918    3.086793   -0.831951
     25          1           0       -0.021049    3.354287   -1.992924
     26          1           0       -1.445633    2.384188   -2.473744
     27          6           0       -1.806313   -2.424799   -1.440407
     28          1           0       -2.139519   -3.403360   -1.090821
     29          1           0       -2.659969   -1.738029   -1.441912
     30          1           0       -1.406181   -2.518427   -2.457864
     31          6           0        4.527539    0.536225    0.433586
     32          1           0        4.933124    0.498075   -0.587491
     33          1           0        4.281570    1.579509    0.678369
     34          1           0        5.279874    0.169042    1.134262
 ---------------------------------------------------------------------

 SCF Done:  E(RB3LYP) =  -768.332888263     A.U. after    1 cycles

 The electronic state is 1-A.
 Alpha  occ. eigenvalues --  -19.32140 -19.21487 -19.19959 -19.19458 -19.17966
 Alpha  occ. eigenvalues --  -10.39053 -10.31505 -10.31502 -10.29602 -10.29383
 Alpha  occ. eigenvalues --  -10.27469 -10.26242 -10.25751 -10.25214 -10.24456
 Alpha  occ. eigenvalues --   -1.20852  -1.09722  -1.08304  -1.07357  -1.06386
 Alpha  occ. eigenvalues --   -0.86919  -0.85122  -0.77367  -0.74516  -0.74080
 Alpha  occ. eigenvalues --   -0.70569  -0.69429  -0.68750  -0.65769  -0.61367
 Alpha  occ. eigenvalues --   -0.58990  -0.58469  -0.56628  -0.53968  -0.53746
 Alpha  occ. eigenvalues --   -0.52914  -0.51311  -0.50752  -0.49751  -0.49360
 Alpha  occ. eigenvalues --   -0.48164  -0.47577  -0.47122  -0.46215  -0.45865
 Alpha  occ. eigenvalues --   -0.44259  -0.43426  -0.41850  -0.41281  -0.40092
 Alpha  occ. eigenvalues --   -0.39530  -0.37398  -0.37023  -0.35517  -0.34794
 Alpha  occ. eigenvalues --   -0.32670  -0.30470  -0.29593  -0.28470
 Alpha virt. eigenvalues --   -0.14432   0.01156   0.03667   0.04516   0.06586
 Alpha virt. eigenvalues --    0.06975   0.08111   0.09190   0.09366   0.10301
 Alpha virt. eigenvalues --    0.11382   0.11904   0.12129   0.12367   0.13602

 Mulliken charges:
               1
     1  C    0.112850
     2  C    0.036836
     3  C    0.305359
     4  C    0.055788
     5  C    0.063631
     6  H    0.271213
     7  H    0.232902
     8  H    0.190868
     9  H    0.240140
    10  H    0.196756
    11  O   -0.304605
    12  O   -0.462835
    13  O   -0.484918
    14  O   -0.488053
    15  C   -0.018862
    16  H    0.175351
    17  H    0.175054
    18  O   -0.480404
    19  C   -0.233553
    20  H    0.177040
    21  H    0.177715
    22  H    0.197515
    23  C   -0.227434
    24  H    0.160703
    25  H    0.190217
    26  H    0.171178
    27  C   -0.221259
    28  H    0.186854
    29  H    0.165778
    30  H    0.164298
    31  C   -0.210685
    32  H    0.154737
    33  H    0.151890
    34  H    0.177936
 Sum of Mulliken charges =   1.00000

 Dipole moment (field-independent basis, Debye):
    X=             -3.1055    Y=              3.4473    Z=              0.5981  Tot=              4.6782
 Quadrupole moment (field-independent basis, Debye-Ang):
   XX=            -61.7305   YY=            -75.9735   ZZ=            -71.3352
   XY=             -2.2689   XZ=             -4.3503   YZ=              5.0032

  Exact polarizability: 169.228  -3.310 134.499  -4.039   0.563 134.442
 Approx polarizability: 181.914  -4.917 154.159  -1.703  -2.626 155.765

                      1                      2                      3
                      A                      A                      A
 Frequencies --     40.9235                62.7081                72.5548
 Red. masses --      3.6080                 2.9046                 3.3236
 Frc consts  --      0.0036                 0.0067                 0.0103
 IR Inten    --      1.3561                 1.0861                 4.1096

                      4                      5                      6
                      A                      A                      A
 Frequencies --     88.6948               103.6080               104.9604
 Red. masses --      2.3769                 2.8025                 3.1125
 Frc consts  --      0.0110                 0.0177                 0.0202
 IR Inten    --      3.7416                 3.9033                 0.3351

                      7                      8                      9
                      A                      A                      A
 Frequencies --    111.9788               131.8616               151.1384
 Red. masses --      2.4344                 2.1241                 2.6020
 Frc consts  --      0.0180                 0.0218                 0.0350
 IR Inten    --      3.7384                 7.5768                 4.5675

                     10                     11                     12
                      A                      A                      A
 Frequencies --    164.6047               182.7257               203.5636
 Red. masses --      2.4297                 1.2460                 1.8479
 Frc consts  --      0.0388                 0.0245                 0.0451
 IR Inten    --      2.8746                 0.2680                 3.6188

                     13                     14                     15
                      A                      A                      A
 Frequencies --    223.1079               233.1835               253.3779
 Red. masses --      1.3038                 1.4069                 2.8958
 Frc consts  --      0.0382                 0.0451                 0.1095
 IR Inten    --      5.5660                12.2446                 6.3420

                     16                     17                     18
                      A                      A                      A
 Frequencies --    279.3121               299.8272               316.9483
 Red. masses --      3.5121                 4.0759                 4.0423
 Frc consts  --      0.1614                 0.2159                 0.2393
 IR Inten    --      0.7375                17.1799                 1.3116

                     19                     20                     21
                      A                      A                      A
 Frequencies --    346.2745               370.4713               414.5845
 Red. masses --      4.2629                 3.5887                 4.4868
 Frc consts  --      0.3012                 0.2902                 0.4544
 IR Inten    --     10.7573                 3.3342                13.9529

                     22                     23                     24
                      A                      A                      A
 Frequencies --    416.5250               480.5663               519.7025
 Red. masses --      3.8736                 3.7416                 4.8012
 Frc consts  --      0.3960                 0.5091                 0.7640
 IR Inten    --      5.3009                28.4378                 8.2903

                     25                     26                     27
                      A                      A                      A
 Frequencies --    578.7492               586.6952               646.9646
 Red. masses --      4.7843                 3.3777                 4.7372
 Frc consts  --      0.9442                 0.6850                 1.1683
 IR Inten    --     23.7086                21.7084                20.0374

                     28                     29                     30
                      A                      A                      A
 Frequencies --    690.9896               839.1406               906.4570
 Red. masses --      4.0706                 2.4427                 2.9106
 Frc consts  --      1.1451                 1.0134                 1.4090
 IR Inten    --     52.4924                 1.5998                51.9849

                     31                     32                     33
                      A                      A                      A
 Frequencies --    917.7843               955.0439               963.9424
 Red. masses --      2.8246                 5.0600                 3.1237
 Frc consts  --      1.4018                 2.7193                 1.7101
 IR Inten    --      8.7806                 5.2096                38.9405

                     34                     35                     36
                      A                      A                      A
 Frequencies --    979.1753              1024.7766              1029.7427
 Red. masses --      3.4082                 2.5801                 2.8094
 Frc consts  --      1.9253                 1.5964                 1.7552
 IR Inten    --     34.2384                 8.7100                 1.4023

                     37                     38                     39
                      A                      A                      A
 Frequencies --   1039.4500              1085.7412              1124.2810
 Red. masses --      3.4607                 2.3432                 3.0624
 Frc consts  --      2.2030                 1.6275                 2.2806
 IR Inten    --     43.7192                31.7897                73.9381

                     40                     41                     42
                      A                      A                      A
 Frequencies --   1130.9293              1138.7326              1139.2926
 Red. masses --      3.8480                 4.4959                 2.2568
 Frc consts  --      2.8997                 3.4348                 1.7259
 IR Inten    --    179.0519               315.3266                67.7338

                     43                     44                     45
                      A                      A                      A
 Frequencies --   1156.2197              1167.2945              1184.5797
 Red. masses --      2.4636                 3.9834                 1.2660
 Frc consts  --      1.9405                 3.1979                 1.0467
 IR Inten    --    221.6122                37.5851                 2.3321

                     46                     47                     48
                      A                      A                      A
 Frequencies --   1186.5099              1192.6984              1194.8353
 Red. masses --      1.2829                 1.3146                 1.2709
 Frc consts  --      1.0641                 1.1018                 1.0690
 IR Inten    --      1.9807                 2.3172                 4.7412

                     49                     50                     51
                      A                      A                      A
 Frequencies --   1216.1248              1221.5646              1229.4900
 Red. masses --      1.4514                 1.4911                 1.6670
 Frc consts  --      1.2647                 1.3110                 1.4847
 IR Inten    --     27.8824                39.9124                45.6372

                     52                     53                     54
                      A                      A                      A
 Frequencies --   1238.0807              1252.3071              1274.3791
 Red. masses --      1.6948                 1.9005                 1.1772
 Frc consts  --      1.5306                 1.7561                 1.1264
 IR Inten    --     17.1801                51.9785                 9.9088

                     55                     56                     57
                      A                      A                      A
 Frequencies --   1308.0585              1339.0215              1347.5020
 Red. masses --      1.2807                 1.2328                 1.2303
 Frc consts  --      1.2911                 1.3023                 1.3162
 IR Inten    --      5.3653                 8.8166                12.7128

                     58                     59                     60
                      A                      A                      A
 Frequencies --   1352.0366              1373.4625              1386.7550
 Red. masses --      1.3628                 1.3352                 1.4856
 Frc consts  --      1.4678                 1.4840                 1.6833
 IR Inten    --     44.4842                20.9423                39.0923

                     61                     62                     63
                      A                      A                      A
 Frequencies --   1418.6420              1437.7538              1449.4366
 Red. masses --      1.4488                 1.3618                 1.4214
 Frc consts  --      1.7179                 1.6586                 1.7594
 IR Inten    --     18.0315                19.5486                56.4634

                     64                     65                     66
                      A                      A                      A
 Frequencies --   1496.3841              1497.4440              1501.2549
 Red. masses --      1.1176                 1.1191                 1.1535
 Frc consts  --      1.4745                 1.4785                 1.5317
 IR Inten    --      0.9657                 6.9758                 0.9194

                     67                     68                     69
                      A                      A                      A
 Frequencies --   1502.9333              1508.5556              1515.2970
 Red. masses --      1.1127                 1.0464                 1.0675
 Frc consts  --      1.4808                 1.4030                 1.4441
 IR Inten    --      5.2891                 9.0142                15.6130

                     70                     71                     72
                      A                      A                      A
 Frequencies --   1517.2747              1523.4466              1524.4124
 Red. masses --      1.0813                 1.0550                 1.0671
 Frc consts  --      1.4667                 1.4427                 1.4610
 IR Inten    --      6.9762                13.4823                10.1890

                     73                     74                     75
                      A                      A                      A
 Frequencies --   1524.6528              1528.5943              1531.7495
 Red. masses --      1.0510                 1.0470                 1.0716
 Frc consts  --      1.4394                 1.4414                 1.4813
 IR Inten    --      9.8217                19.6046                 9.1921

                     76                     77                     78
                      A                      A                      A
 Frequencies --   1540.1028              1647.8655              3011.6193
 Red. masses --      1.0910                 5.5613                 1.0538
 Frc consts  --      1.5247                 8.8976                 5.6315
 IR Inten    --      5.0744               313.4402                48.2539

                     79                     80                     81
                      A                      A                      A
 Frequencies --   3018.1201              3031.8510              3034.5447
 Red. masses --      1.0488                 1.0468                 1.0682
 Frc consts  --      5.6289                 5.6694                 5.7953
 IR Inten    --     49.2241                22.0587                26.3378

                     82                     83                     84
                      A                      A                      A
 Frequencies --   3041.3926              3048.1287              3055.7995
 Red. masses --      1.0345                 1.0332                 1.0844
 Frc consts  --      5.6382                 5.6559                 5.9661
 IR Inten    --     44.8409                49.0068                24.1538

                     85                     86                     87
                      A                      A                      A
 Frequencies --   3068.1924              3074.9807              3091.3988
 Red. masses --      1.1055                 1.0853                 1.0936
 Frc consts  --      6.1316                 6.0464                 6.1576
 IR Inten    --     77.3634                29.5379                16.5246

                     88                     89                     90
                      A                      A                      A
 Frequencies --   3095.2881              3109.8183              3116.5041
 Red. masses --      1.1049                 1.1057                 1.1079
 Frc consts  --      6.2370                 6.3000                 6.3398
 IR Inten    --     50.8673                47.2712                32.5366

                     91                     92                     93
                      A                      A                      A
 Frequencies --   3157.4889              3164.7475              3166.0168
 Red. masses --      1.0992                 1.1020                 1.0873
 Frc consts  --      6.4567                 6.5029                 6.4213
 IR Inten    --     29.9536                21.8965                 0.5301

                     94                     95                     96
                      A                      A                      A
 Frequencies --   3172.3515              3181.1862              3199.2485
 Red. masses --      1.1011                 1.1026                 1.0938
 Frc consts  --      6.5287                 6.5740                 6.5962
 IR Inten    --     20.6355                15.0604                 0.5590

 - Thermochemistry -
 -------------------
 Temperature   298.150 Kelvin.  Pressure   1.00000 Atm.
 Atom     1 has atomic number  6 and mass  12.00000

 Molecular mass:   219.12325 amu.
 Principal axes and moments of inertia in atomic units:
                           1         2         3
     Eigenvalues --  2279.795974578.539124904.45536
           X            0.99999   0.00331  -0.00259
           Y           -0.00314   0.99805   0.06236
           Z            0.00280  -0.06235   0.99805
 This molecule is an asymmetric top.
 Rotational symmetry number  1.
 Warning -- assumption of classical behavior for rotation
           may cause significant error
 Rotational temperatures (Kelvin)      0.03799     0.01892     0.01766
 Rotational constants (GHZ):           0.79162     0.39417     0.36798
 Zero-point vibrational energy     774441.4 (Joules/Mol)
                                  185.09593 (Kcal/Mol)
 Warning -- explicit consideration of  26 degrees of freedom as
           vibrations may cause significant error
 Vibrational temperatures:     58.88    90.22   104.39   127.61   149.07
          (Kelvin)            151.01   161.11   189.72   217.45   236.83
                              262.90   292.88   321.00   335.50   364.55
                              401.87   431.38   456.02   498.21   533.03
                              596.49   599.29   691.43   747.74   832.69
                              844.12   930.84   994.18  1207.34  1304.19
                             1320.49  1374.10  1386.90  1408.81  1474.42
                             1481.57  1495.54  1562.14  1617.59  1627.16
                             1638.38  1639.19  1663.54  1679.48  1704.35
                             1707.12  1716.03  1719.10  1749.73  1757.56
                             1768.96  1781.32  1801.79  1833.55  1882.00
                             1926.55  1938.75  1945.28  1976.11  1995.23
                             2041.11  2068.61  2085.42  2152.96  2154.49
                             2159.97  2162.39  2170.48  2180.17  2183.02
                             2191.90  2193.29  2193.64  2199.31  2203.85
                             2215.86  2370.91  4333.05  4342.40  4362.16
                             4366.03  4375.89  4385.58  4396.61  4414.44
                             4424.21  4447.83  4453.43  4474.33  4483.95
                             4542.92  4553.37  4555.19  4564.31  4577.02
                             4603.01

 Zero-point correction=                           0.294969 (Hartree/Particle)
 Thermal correction to Energy=                    0.312212
 Thermal correction to Enthalpy=                  0.313156
 Thermal correction to Gibbs Free Energy=         0.249915
 Sum of electronic and zero-point Energies=           -768.037919
 Sum of electronic and thermal Energies=              -768.020677
 Sum of electronic and thermal Enthalpies=            -768.019732
 Sum of electronic and thermal Free Energies=         -768.082973

                     E (Thermal)             CV                S
                      KCal/Mol        Cal/Mol-Kelvin    Cal/Mol-Kelvin
 Total                  195.916             61.401            133.101
 Electronic               0.000              0.000              0.000
 Translational            0.889              2.981             42.056
 Rotational               0.889              2.981             32.304
 Vibrational            194.138             55.439             58.741
 Vibration     1          0.594              1.981              5.214
 Vibration     2          0.597              1.972              4.370
 Vibration     3          0.599              1.967              4.083
 Vibration     4          0.602              1.957              3.689
 Vibration     5          0.605              1.946              3.385
 Vibration     6          0.605              1.945              3.360
 Vibration     7          0.607              1.940              3.234
 Vibration     8          0.612              1.921              2.919
 Vibration     9          0.619              1.901              2.658
 Vibration    10          0.623              1.886              2.496
 Vibration    11          0.630              1.863              2.300
 Vibration    12          0.639              1.835              2.101
 Vibration    13          0.649              1.806              1.934
 Vibration    14          0.654              1.790              1.854
 Vibration    15          0.665              1.757              1.707
 Vibration    16          0.680              1.712              1.538
 Vibration    17          0.692              1.674              1.418
 Vibration    18          0.704              1.641              1.326
 Vibration    19          0.724              1.583              1.183
 Vibration    20          0.742              1.533              1.078
 Vibration    21          0.778              1.439              0.911
 Vibration    22          0.780              1.434              0.904
 Vibration    23          0.837              1.293              0.709
 Vibration    24          0.875              1.206              0.611
 Vibration    25          0.935              1.077              0.488
 Vibration    26          0.944              1.060              0.473

 Optimization completed.
    -- Stationary point found.
 Normal termination of Gaussian 16 at Fri May 24 08:54:34 2019.
