 Gaussian 16, Revision A.03,
 Gaussian 16:  ES64L-G16RevA.03 25-Dec-2016

 -------------------------------------------------------------------
 #p b3lyp 6-31g* opt freq=noraman scrf=(pcm,solvent=tetrahydrofuran)
 -------------------------------------------------------------------

 -----
 title
 -----
 Symbolic Z-matrix:
 Charge =  1 Multiplicity = 1

 SCF Done:  E(RB3LYP) =  -768.318832231     A.U. after   16 cycles
 Optimization completed.
    -- Stationary point found.
 Normal termination of Gaussian 16 at Fri May 24 08:37:19 2019.

 --------------------------------------------------------------------
 #P Geom=AllCheck Guess=TCheck SCRF=Check GenChk RB3LYP/6-31G(d) Freq
 --------------------------------------------------------------------

 Structure from the checkpoint file:  "/scratch/Gau-50679.chk"
 -----
 title
 -----
 Charge =  1 Multiplicity = 1

                         Standard orientation:
 ---------------------------------------------------------------------
 Center     Atomic      Atomic             Coordinates (Angstroms)
 Number     Number       Type             X           Y           Z
 ---------------------------------------------------------------------
      1          6           0        1.133642    0.514819   -0.111619
      2          6           0        1.777750   -0.825158   -0.567344
      3          6           0        0.875840   -2.012431   -0.394797
      4          6           0       -1.095119   -0.686141    0.092961
      5          6           0       -0.341230    0.482054   -0.571398
      6          1           0        1.290394   -3.017913   -0.493938
      7          1           0        1.880054   -0.747364   -1.665699
      8          1           0        1.192714    0.602938    0.982957
      9          1           0       -1.094817   -0.629736    1.183601
     10          1           0       -0.347020    0.312004   -1.655028
     11          8           0       -0.356734   -1.979143   -0.162308
     12          8           0        3.065408   -1.133538   -0.103194
     13          8           0        1.744823    1.604404   -0.744398
     14          8           0       -1.049536    1.679835   -0.409541
     15          6           0       -2.530118   -0.904399   -0.383852
     16          1           0       -2.750320   -1.983016   -0.397638
     17          1           0       -2.662581   -0.514423   -1.403438
     18          8           0       -3.346408   -0.221488    0.540167
     19          6           0        3.204766   -1.303980    1.317232
     20          1           0        2.493614   -2.043394    1.709352
     21          1           0        4.219137   -1.672521    1.469872
     22          1           0        3.079036   -0.357961    1.852900
     23          6           0        2.940651    2.094053   -0.129972
     24          1           0        3.758438    1.369646   -0.203271
     25          1           0        3.209066    3.000813   -0.674577
     26          1           0        2.763737    2.347365    0.923729
     27          6           0       -1.085547    2.269022    0.894663
     28          1           0       -1.669137    3.183599    0.779203
     29          1           0       -1.585858    1.622765    1.623699
     30          1           0       -0.082737    2.532568    1.247456
     31          6           0       -4.707420   -0.160548    0.128968
     32          1           0       -4.809967    0.369973   -0.827803
     33          1           0       -5.138781   -1.166425    0.028132
     34          1           0       -5.244679    0.386772    0.905636
 ---------------------------------------------------------------------

 SCF Done:  E(RB3LYP) =  -768.318832231     A.U. after    1 cycles

 The electronic state is 1-A.
 Alpha  occ. eigenvalues --  -19.33918 -19.21493 -19.19389 -19.19077 -19.18376
 Alpha  occ. eigenvalues --  -10.40404 -10.32315 -10.32184 -10.29877 -10.29752
 Alpha  occ. eigenvalues --  -10.27764 -10.26684 -10.25013 -10.24985 -10.24559
 Alpha  occ. eigenvalues --   -1.22478  -1.10023  -1.08370  -1.06786  -1.06303
 Alpha  occ. eigenvalues --   -0.87518  -0.86070  -0.77848  -0.75294  -0.73844
 Alpha  occ. eigenvalues --   -0.72292  -0.68566  -0.67609  -0.66024  -0.63167
 Alpha  occ. eigenvalues --   -0.60736  -0.58831  -0.56040  -0.55543  -0.53688
 Alpha  occ. eigenvalues --   -0.52436  -0.52025  -0.50972  -0.50354  -0.49479
 Alpha  occ. eigenvalues --   -0.48683  -0.48040  -0.46305  -0.45991  -0.45332
 Alpha  occ. eigenvalues --   -0.44207  -0.43602  -0.42801  -0.41537  -0.41032
 Alpha  occ. eigenvalues --   -0.39765  -0.37290  -0.36114  -0.35451  -0.34225
 Alpha  occ. eigenvalues --   -0.33367  -0.30149  -0.28964  -0.28586
 Alpha virt. eigenvalues --   -0.16071  -0.01042   0.04274   0.04684   0.06786
 Alpha virt. eigenvalues --    0.07497   0.07598   0.08476   0.09562   0.10493
 Alpha virt. eigenvalues --    0.10581   0.11584   0.11925   0.12731   0.13029

 Mulliken charges:
               1
     1  C    0.099503
     2  C    0.040762
     3  C    0.278247
     4  C    0.062282
     5  C    0.096954
     6  H    0.286146
     7  H    0.260673
     8  H    0.173394
     9  H    0.241350
    10  H    0.191719
    11  O   -0.307352
    12  O   -0.466640
    13  O   -0.481850
    14  O   -0.469582
    15  C   -0.030449
    16  H    0.175125
    17  H    0.173497
    18  O   -0.477412
    19  C   -0.246140
    20  H    0.166328
    21  H    0.205688
    22  H    0.178644
    23  C   -0.229485
    24  H    0.171241
    25  H    0.185272
    26  H    0.159618
    27  C   -0.238135
    28  H    0.188498
    29  H    0.166273
    30  H    0.165340
    31  C   -0.212365
    32  H    0.158762
    33  H    0.155309
    34  H    0.178785
 Sum of Mulliken charges =   1.00000

 Dipole moment (field-independent basis, Debye):
    X=              1.7912    Y=             -5.7068    Z=              1.3457  Tot=              6.1308
 Quadrupole moment (field-independent basis, Debye-Ang):
   XX=            -61.2478   YY=            -71.0384   ZZ=            -81.6930
   XY=             -1.2826   XZ=              6.8502   YZ=              6.1758

  Exact polarizability: 168.525  -4.577 145.167  -1.331   3.814 117.119
 Approx polarizability: 176.263  -5.034 163.512  -3.789   1.758 147.046

                      1                      2                      3
                      A                      A                      A
 Frequencies --     38.7344                52.0997                68.0127
 Red. masses --      4.2897                 3.3285                 3.5047
 Frc consts  --      0.0038                 0.0053                 0.0096
 IR Inten    --      1.1757                 0.2158                 2.9219

                      4                      5                      6
                      A                      A                      A
 Frequencies --     77.4077                97.6727               118.2731
 Red. masses --      2.2924                 2.5720                 2.7588
 Frc consts  --      0.0081                 0.0145                 0.0227
 IR Inten    --      8.3017                 8.3539                 0.2036

                      7                      8                      9
                      A                      A                      A
 Frequencies --    126.9513               145.6581               177.9868
 Red. masses --      2.3413                 2.5058                 1.2325
 Frc consts  --      0.0222                 0.0313                 0.0230
 IR Inten    --      2.7724                 2.8746                 0.1178

                     10                     11                     12
                      A                      A                      A
 Frequencies --    180.1023               187.3859               208.6773
 Red. masses --      2.1868                 1.4116                 1.6873
 Frc consts  --      0.0418                 0.0292                 0.0433
 IR Inten    --      2.6672                 2.1068                 0.2499

                     13                     14                     15
                      A                      A                      A
 Frequencies --    220.9495               236.6176               245.2643
 Red. masses --      1.5867                 1.7201                 3.7846
 Frc consts  --      0.0456                 0.0567                 0.1341
 IR Inten    --      2.8200                 9.3163                 2.7096

                     16                     17                     18
                      A                      A                      A
 Frequencies --    279.3417               297.2275               306.8522
 Red. masses --      3.0457                 4.1613                 4.4736
 Frc consts  --      0.1400                 0.2166                 0.2482
 IR Inten    --      4.7340                17.3294                 8.8805

                     19                     20                     21
                      A                      A                      A
 Frequencies --    312.1401               360.9535               407.7630
 Red. masses --      3.8968                 3.6440                 4.0551
 Frc consts  --      0.2237                 0.2797                 0.3973
 IR Inten    --      2.2146                 1.5257                12.9045

                     22                     23                     24
                      A                      A                      A
 Frequencies --    436.9913               485.4321               502.0199
 Red. masses --      5.8993                 4.5803                 4.0303
 Frc consts  --      0.6637                 0.6359                 0.5985
 IR Inten    --     13.9500                17.0793                11.0103

                     25                     26                     27
                      A                      A                      A
 Frequencies --    526.9864               578.7186               636.2613
 Red. masses --      3.4829                 3.4628                 2.8467
 Frc consts  --      0.5699                 0.6833                 0.6790
 IR Inten    --     17.6385                 5.8562                 9.7911

                     28                     29                     30
                      A                      A                      A
 Frequencies --    713.1906               797.7650               836.6049
 Red. masses --      4.8916                 4.9547                 2.2794
 Frc consts  --      1.4659                 1.8579                 0.9400
 IR Inten    --     28.6578                72.8442                20.4293

                     31                     32                     33
                      A                      A                      A
 Frequencies --    917.1381               946.3811               956.7294
 Red. masses --      3.6882                 3.1360                 4.0010
 Frc consts  --      1.8278                 1.6548                 2.1577
 IR Inten    --      6.4824                 9.5909               107.1514

                     34                     35                     36
                      A                      A                      A
 Frequencies --    991.3544              1006.4330              1040.9165
 Red. masses --      3.9079                 2.8673                 2.1763
 Frc consts  --      2.2628                 1.7112                 1.3893
 IR Inten    --     39.2603                18.8383                10.3950

                     37                     38                     39
                      A                      A                      A
 Frequencies --   1060.2132              1089.7776              1121.2874
 Red. masses --      4.1864                 2.7431                 2.4805
 Frc consts  --      2.7726                 1.9194                 1.8375
 IR Inten    --     37.7053                45.8196                14.7781

                     40                     41                     42
                      A                      A                      A
 Frequencies --   1140.2375              1148.3097              1159.0713
 Red. masses --      2.3996                 3.6117                 4.3658
 Frc consts  --      1.8381                 2.8060                 3.4557
 IR Inten    --     66.5261               129.4043               236.3937

                     43                     44                     45
                      A                      A                      A
 Frequencies --   1169.2112              1184.6531              1186.1780
 Red. masses --      3.3894                 1.2776                 1.3453
 Frc consts  --      2.7300                 1.0564                 1.1153
 IR Inten    --    116.5863                 3.5027                 4.2045

                     46                     47                     48
                      A                      A                      A
 Frequencies --   1189.5195              1190.0929              1192.1258
 Red. masses --      1.2783                 2.2032                 1.8064
 Frc consts  --      1.0657                 1.8385                 1.5125
 IR Inten    --      9.9635                80.6168                56.6071

                     49                     50                     51
                      A                      A                      A
 Frequencies --   1223.9715              1229.5190              1235.3948
 Red. masses --      1.5097                 1.5233                 1.7174
 Frc consts  --      1.3326                 1.3568                 1.5443
 IR Inten    --     32.9061                38.6036                76.3299

                     52                     53                     54
                      A                      A                      A
 Frequencies --   1240.6690              1253.3903              1278.0672
 Red. masses --      1.6155                 1.5193                 1.4565
 Frc consts  --      1.4651                 1.4063                 1.4017
 IR Inten    --     18.7367                 9.2885                27.9222

                     55                     56                     57
                      A                      A                      A
 Frequencies --   1301.7089              1331.3862              1344.0748
 Red. masses --      1.2929                 1.2030                 1.2686
 Frc consts  --      1.2907                 1.2564                 1.3502
 IR Inten    --     17.8587                27.8472                 6.5026

                     58                     59                     60
                      A                      A                      A
 Frequencies --   1355.2484              1389.4496              1410.2921
 Red. masses --      1.2604                 1.4099                 1.3247
 Frc consts  --      1.3640                 1.6037                 1.5523
 IR Inten    --      4.4730                12.3493                24.9127

                     61                     62                     63
                      A                      A                      A
 Frequencies --   1420.4452              1437.1393              1450.9890
 Red. masses --      1.2479                 1.2251                 1.3541
 Frc consts  --      1.4834                 1.4908                 1.6797
 IR Inten    --     14.7082                21.6115                30.1663

                     64                     65                     66
                      A                      A                      A
 Frequencies --   1498.9909              1500.5062              1504.1947
 Red. masses --      1.1357                 1.1572                 1.1173
 Frc consts  --      1.5035                 1.5351                 1.4895
 IR Inten    --      4.0521                 2.6450                 0.3324

                     67                     68                     69
                      A                      A                      A
 Frequencies --   1506.4494              1509.6174              1512.3725
 Red. masses --      1.1407                 1.0495                 1.0621
 Frc consts  --      1.5252                 1.4092                 1.4314
 IR Inten    --      1.1235                 9.1146                12.8095

                     70                     71                     72
                      A                      A                      A
 Frequencies --   1513.5823              1521.0044              1525.0848
 Red. masses --      1.0613                 1.0469                 1.0650
 Frc consts  --      1.4326                 1.4270                 1.4595
 IR Inten    --      6.9738                12.5492                 9.6286

                     73                     74                     75
                      A                      A                      A
 Frequencies --   1527.1341              1535.5346              1540.1828
 Red. masses --      1.0485                 1.0592                 1.0583
 Frc consts  --      1.4408                 1.4714                 1.4792
 IR Inten    --     18.6738                19.6601                 6.1123

                     76                     77                     78
                      A                      A                      A
 Frequencies --   1544.8090              1641.5255              2984.1554
 Red. masses --      1.0877                 7.3925                 1.0787
 Frc consts  --      1.5294                11.7365                 5.6595
 IR Inten    --      3.3202               245.1202                28.0890

                     79                     80                     81
                      A                      A                      A
 Frequencies --   3010.1203              3021.3125              3034.9408
 Red. masses --      1.0541                 1.0375                 1.0420
 Frc consts  --      5.6275                 5.5798                 5.6548
 IR Inten    --     34.0068                71.2894                44.8204

                     82                     83                     84
                      A                      A                      A
 Frequencies --   3039.3369              3042.0960              3051.7491
 Red. masses --      1.0417                 1.0743                 1.1056
 Frc consts  --      5.6693                 5.8575                 6.0665
 IR Inten    --     26.4385                14.2187                46.0984

                     85                     86                     87
                      A                      A                      A
 Frequencies --   3056.6302              3062.5045              3076.1416
 Red. masses --      1.0367                 1.0842                 1.1069
 Frc consts  --      5.7067                 5.9913                 6.1710
 IR Inten    --     66.5805                23.2111                48.9307

                     88                     89                     90
                      A                      A                      A
 Frequencies --   3111.3664              3118.3601              3124.5681
 Red. masses --      1.1005                 1.0984                 1.1067
 Frc consts  --      6.2771                 6.2933                 6.3659
 IR Inten    --     44.3179                39.4260                47.2239

                     91                     92                     93
                      A                      A                      A
 Frequencies --   3137.3515              3160.3743              3166.0762
 Red. masses --      1.0865                 1.0996                 1.1027
 Frc consts  --      6.3008                 6.4709                 6.5125
 IR Inten    --      1.6737                26.4517                21.1895

                     94                     95                     96
                      A                      A                      A
 Frequencies --   3167.6583              3183.6582              3188.6434
 Red. masses --      1.1025                 1.1021                 1.0941
 Frc consts  --      6.5181                 6.5816                 6.5543
 IR Inten    --     24.6314                13.0639                 2.3179

 - Thermochemistry -
 -------------------
 Temperature   298.150 Kelvin.  Pressure   1.00000 Atm.
 Atom     1 has atomic number  6 and mass  12.00000

 Molecular mass:   219.12325 amu.
 Principal axes and moments of inertia in atomic units:
                           1         2         3
     Eigenvalues --  1888.047144705.225345981.91466
           X            0.99992   0.00593   0.01076
           Y           -0.00609   0.99988   0.01456
           Z           -0.01067  -0.01462   0.99984
 This molecule is an asymmetric top.
 Rotational symmetry number  1.
 Warning -- assumption of classical behavior for rotation
           may cause significant error
 Rotational temperatures (Kelvin)      0.04587     0.01841     0.01448
 Rotational constants (GHZ):           0.95588     0.38356     0.30170
 Zero-point vibrational energy     773801.1 (Joules/Mol)
                                  184.94291 (Kcal/Mol)
 Warning -- explicit consideration of  26 degrees of freedom as
           vibrations may cause significant error
 Vibrational temperatures:     55.73    74.96    97.86   111.37   140.53
          (Kelvin)            170.17   182.65   209.57   256.08   259.13
                              269.61   300.24   317.90   340.44   352.88
                              401.91   427.64   441.49   449.10   519.33
                              586.68   628.73   698.43   722.29   758.22
                              832.65   915.44  1026.12  1147.81  1203.69
                             1319.56  1361.63  1376.52  1426.34  1448.03
                             1497.65  1525.41  1567.95  1613.28  1640.55
                             1652.16  1667.65  1682.23  1704.45  1706.65
                             1711.45  1712.28  1715.20  1761.02  1769.00
                             1777.46  1785.05  1803.35  1838.85  1872.87
                             1915.57  1933.82  1949.90  1999.11  2029.10
                             2043.70  2067.72  2087.65  2156.71  2158.89
                             2164.20  2167.44  2172.00  2175.97  2177.71
                             2188.39  2194.26  2197.21  2209.29  2215.98
                             2222.64  2361.79  4293.53  4330.89  4346.99
                             4366.60  4372.93  4376.90  4390.79  4397.81
                             4406.26  4425.88  4476.56  4486.62  4495.56
                             4513.95  4547.07  4555.28  4557.55  4580.57
                             4587.75

 Zero-point correction=                           0.294725 (Hartree/Particle)
 Thermal correction to Energy=                    0.311997
 Thermal correction to Enthalpy=                  0.312942
 Thermal correction to Gibbs Free Energy=         0.249577
 Sum of electronic and zero-point Energies=           -768.024107
 Sum of electronic and thermal Energies=              -768.006835
 Sum of electronic and thermal Enthalpies=            -768.005891
 Sum of electronic and thermal Free Energies=         -768.069255

                     E (Thermal)             CV                S
                      KCal/Mol        Cal/Mol-Kelvin    Cal/Mol-Kelvin
 Total                  195.781             61.626            133.361
 Electronic               0.000              0.000              0.000
 Translational            0.889              2.981             42.056
 Rotational               0.889              2.981             32.341
 Vibrational            194.004             55.664             58.964
 Vibration     1          0.594              1.981              5.323
 Vibration     2          0.596              1.977              4.736
 Vibration     3          0.598              1.969              4.210
 Vibration     4          0.599              1.964              3.956
 Vibration     5          0.603              1.951              3.500
 Vibration     6          0.608              1.934              3.128
 Vibration     7          0.611              1.926              2.992
 Vibration     8          0.617              1.907              2.728
 Vibration     9          0.628              1.869              2.349
 Vibration    10          0.629              1.867              2.327
 Vibration    11          0.632              1.857              2.254
 Vibration    12          0.642              1.827              2.055
 Vibration    13          0.648              1.809              1.951
 Vibration    14          0.656              1.785              1.828
 Vibration    15          0.660              1.771              1.764
 Vibration    16          0.680              1.712              1.538
 Vibration    17          0.691              1.679              1.432
 Vibration    18          0.697              1.661              1.379
 Vibration    19          0.700              1.651              1.351
 Vibration    20          0.735              1.553              1.118
 Vibration    21          0.772              1.453              0.935
 Vibration    22          0.797              1.390              0.836
 Vibration    23          0.841              1.282              0.696
 Vibration    24          0.857              1.246              0.653
 Vibration    25          0.882              1.190              0.594
 Vibration    26          0.935              1.077              0.488

 Optimization completed.
    -- Stationary point found.
 Normal termination of Gaussian 16 at Fri May 24 09:10:59 2019.
