 Gaussian 16, Revision A.03,
 Gaussian 16:  ES64L-G16RevA.03 25-Dec-2016

 -------------------------------------------------------------------
 #p b3lyp 6-31g* opt freq=noraman scrf=(pcm,solvent=tetrahydrofuran)
 -------------------------------------------------------------------

 -----
 title
 -----
 Symbolic Z-matrix:
 Charge =  1 Multiplicity = 1

 SCF Done:  E(RB3LYP) =  -768.325170912     A.U. after   14 cycles
 Optimization completed.
    -- Stationary point found.
 Normal termination of Gaussian 16 at Fri May 24 08:38:01 2019.

 --------------------------------------------------------------------
 #P Geom=AllCheck Guess=TCheck SCRF=Check GenChk RB3LYP/6-31G(d) Freq
 --------------------------------------------------------------------

 Structure from the checkpoint file:  "/scratch/Gau-52620.chk"
 -----
 title
 -----
 Charge =  1 Multiplicity = 1

                         Standard orientation:
 ---------------------------------------------------------------------
 Center     Atomic      Atomic             Coordinates (Angstroms)
 Number     Number       Type             X           Y           Z
 ---------------------------------------------------------------------
      1          6           0       -1.080565    0.414032    0.129589
      2          6           0       -1.159865   -1.107441    0.443632
      3          6           0       -0.197587   -1.915127   -0.371764
      4          6           0        1.244662   -0.020393   -0.901176
      5          6           0        0.409271    0.806467    0.097413
      6          1           0       -0.368800   -2.986247   -0.499432
      7          1           0       -0.793662   -1.226166    1.479290
      8          1           0       -1.561013    0.611484   -0.839577
      9          1           0        1.077783    0.289391   -1.934257
     10          1           0        0.813888    0.633270    1.098736
     11          8           0        0.831574   -1.480983   -0.936788
     12          8           0       -2.424321   -1.715467    0.429011
     13          8           0       -1.665566    1.176868    1.150306
     14          8           0        0.671674    2.167614   -0.166310
     15          6           0        2.728506   -0.050375   -0.588597
     16          1           0        3.091135    0.986653   -0.654966
     17          1           0        3.256312   -0.647695   -1.346658
     18          8           0        2.886417   -0.589878    0.701650
     19          6           0       -3.123381   -1.703600   -0.826241
     20          1           0       -3.481945   -0.701765   -1.082085
     21          1           0       -2.500345   -2.088048   -1.645548
     22          1           0       -3.977717   -2.367405   -0.692188
     23          6           0       -3.086750    1.331606    1.092393
     24          1           0       -3.603330    0.391462    1.309963
     25          1           0       -3.339460    2.069876    1.855318
     26          1           0       -3.401772    1.709309    0.110683
     27          6           0       -0.078272    2.805832   -1.203381
     28          1           0       -1.121935    2.951822   -0.905091
     29          1           0        0.391111    3.780597   -1.345007
     30          1           0       -0.042019    2.257723   -2.153939
     31          6           0        4.242897   -0.606969    1.134863
     32          1           0        4.863562   -1.224339    0.471025
     33          1           0        4.660080    0.408628    1.172790
     34          1           0        4.246413   -1.037970    2.137607
 ---------------------------------------------------------------------

 SCF Done:  E(RB3LYP) =  -768.325170912     A.U. after    1 cycles

 The electronic state is 1-A.
 Alpha  occ. eigenvalues --  -19.33397 -19.21315 -19.19438 -19.19147 -19.18620
 Alpha  occ. eigenvalues --  -10.40005 -10.32271 -10.31997 -10.29864 -10.29475
 Alpha  occ. eigenvalues --  -10.27796 -10.26632 -10.25399 -10.25001 -10.24757
 Alpha  occ. eigenvalues --   -1.21996  -1.09921  -1.08274  -1.06948  -1.06371
 Alpha  occ. eigenvalues --   -0.87350  -0.85884  -0.77795  -0.75388  -0.73843
 Alpha  occ. eigenvalues --   -0.72250  -0.69073  -0.67673  -0.65992  -0.62402
 Alpha  occ. eigenvalues --   -0.60535  -0.58609  -0.56156  -0.55393  -0.53887
 Alpha  occ. eigenvalues --   -0.52374  -0.52016  -0.50982  -0.50309  -0.49215
 Alpha  occ. eigenvalues --   -0.48605  -0.48053  -0.46571  -0.46096  -0.45237
 Alpha  occ. eigenvalues --   -0.43967  -0.43633  -0.42849  -0.41958  -0.41180
 Alpha  occ. eigenvalues --   -0.39671  -0.37328  -0.36080  -0.35724  -0.34359
 Alpha  occ. eigenvalues --   -0.33271  -0.30079  -0.29126  -0.28881
 Alpha virt. eigenvalues --   -0.15527  -0.00256   0.04485   0.04815   0.06052
 Alpha virt. eigenvalues --    0.07206   0.07864   0.08722   0.09532   0.10767
 Alpha virt. eigenvalues --    0.11017   0.11715   0.11832   0.12847   0.12921

 Mulliken charges:
               1
     1  C    0.092197
     2  C    0.039871
     3  C    0.279075
     4  C    0.040390
     5  C    0.103193
     6  H    0.282857
     7  H    0.262128
     8  H    0.172583
     9  H    0.236838
    10  H    0.205053
    11  O   -0.296856
    12  O   -0.468169
    13  O   -0.480202
    14  O   -0.480638
    15  C   -0.023635
    16  H    0.186342
    17  H    0.177298
    18  O   -0.485195
    19  C   -0.245863
    20  H    0.177248
    21  H    0.164667
    22  H    0.204938
    23  C   -0.230055
    24  H    0.173280
    25  H    0.185606
    26  H    0.158858
    27  C   -0.238625
    28  H    0.172903
    29  H    0.190595
    30  H    0.157399
    31  C   -0.211087
    32  H    0.157462
    33  H    0.160440
    34  H    0.179103
 Sum of Mulliken charges =   1.00000

 Dipole moment (field-independent basis, Debye):
    X=             -0.5617    Y=             -3.7644    Z=             -4.8416  Tot=              6.1585
 Quadrupole moment (field-independent basis, Debye-Ang):
   XX=            -57.1281   YY=            -73.5691   ZZ=            -80.6577
   XY=             -0.9112   XZ=              3.2403   YZ=             -1.2491

  Exact polarizability: 161.300   2.052 145.124  -4.876  -1.229 123.771
 Approx polarizability: 169.140   4.631 163.667  -7.621  -0.643 153.048

                      1                      2                      3
                      A                      A                      A
 Frequencies --     30.2726                59.4204                74.8342
 Red. masses --      4.3923                 3.3643                 3.3445
 Frc consts  --      0.0024                 0.0070                 0.0110
 IR Inten    --      0.6847                 1.0106                 1.5638

                      4                      5                      6
                      A                      A                      A
 Frequencies --    107.5950               113.4677               115.3311
 Red. masses --      2.8746                 2.3464                 2.2369
 Frc consts  --      0.0196                 0.0178                 0.0175
 IR Inten    --      6.8300                 3.9013                 8.4984

                      7                      8                      9
                      A                      A                      A
 Frequencies --    123.2835               140.3102               174.1832
 Red. masses --      2.2888                 2.3263                 2.3584
 Frc consts  --      0.0205                 0.0270                 0.0422
 IR Inten    --      1.9679                 2.9290                 2.8253

                     10                     11                     12
                      A                      A                      A
 Frequencies --    179.8002               189.6215               208.3401
 Red. masses --      2.1470                 1.2681                 1.2312
 Frc consts  --      0.0409                 0.0269                 0.0315
 IR Inten    --      0.1311                 1.2805                 0.6696

                     13                     14                     15
                      A                      A                      A
 Frequencies --    230.0136               243.3659               254.7746
 Red. masses --      1.4731                 2.8750                 3.3553
 Frc consts  --      0.0459                 0.1003                 0.1283
 IR Inten    --      6.4877                 3.3546                15.6020

                     16                     17                     18
                      A                      A                      A
 Frequencies --    275.5916               298.7532               309.8727
 Red. masses --      2.4620                 4.3330                 3.4714
 Frc consts  --      0.1102                 0.2279                 0.1964
 IR Inten    --      4.7527                13.6284                 1.4232

                     19                     20                     21
                      A                      A                      A
 Frequencies --    336.0589               361.5662               407.6155
 Red. masses --      3.3892                 4.0446                 4.5878
 Frc consts  --      0.2255                 0.3115                 0.4491
 IR Inten    --      1.4744                 6.3983                 3.7248

                     22                     23                     24
                      A                      A                      A
 Frequencies --    439.7816               471.5881               497.9207
 Red. masses --      5.0253                 4.6839                 3.6983
 Frc consts  --      0.5726                 0.6137                 0.5402
 IR Inten    --     14.3361                15.4205                 8.9758

                     25                     26                     27
                      A                      A                      A
 Frequencies --    557.4225               612.3150               659.5656
 Red. masses --      3.6308                 3.5885                 3.2214
 Frc consts  --      0.6647                 0.7927                 0.8257
 IR Inten    --     11.1022                36.6036                14.8259

                     28                     29                     30
                      A                      A                      A
 Frequencies --    713.2213               748.1501               845.1352
 Red. masses --      5.5052                 4.3101                 2.3830
 Frc consts  --      1.6500                 1.4214                 1.0028
 IR Inten    --     21.4551                76.5464                29.7214

                     31                     32                     33
                      A                      A                      A
 Frequencies --    911.2149               922.4168               955.6103
 Red. masses --      3.0100                 3.8223                 4.2954
 Frc consts  --      1.4725                 1.9162                 2.3111
 IR Inten    --      2.8696                10.7006                82.1417

                     34                     35                     36
                      A                      A                      A
 Frequencies --    989.5725              1008.8469              1047.5041
 Red. masses --      3.7233                 2.4412                 3.5847
 Frc consts  --      2.1482                 1.4639                 2.3175
 IR Inten    --      4.2138                24.6142                85.6978

                     37                     38                     39
                      A                      A                      A
 Frequencies --   1055.1128              1077.9991              1116.0782
 Red. masses --      2.3018                 3.2016                 2.7228
 Frc consts  --      1.5098                 2.1920                 1.9982
 IR Inten    --     49.5053                53.3748                 0.2307

                     40                     41                     42
                      A                      A                      A
 Frequencies --   1129.7945              1138.4805              1160.6842
 Red. masses --      2.6157                 3.3645                 3.3754
 Frc consts  --      1.9671                 2.5693                 2.6792
 IR Inten    --     40.7240               123.9845                99.1036

                     43                     44                     45
                      A                      A                      A
 Frequencies --   1161.6954              1171.1278              1182.4819
 Red. masses --      3.1549                 1.9842                 1.3582
 Frc consts  --      2.5085                 1.6034                 1.1189
 IR Inten    --    361.4276                 4.6013                 9.3128

                     46                     47                     48
                      A                      A                      A
 Frequencies --   1183.6331              1189.3035              1194.2315
 Red. masses --      1.2813                 1.4495                 1.6356
 Frc consts  --      1.0577                 1.2080                 1.3744
 IR Inten    --      6.9342                29.6435                21.4117

                     49                     50                     51
                      A                      A                      A
 Frequencies --   1220.3987              1225.2406              1231.3124
 Red. masses --      1.5786                 1.5929                 1.7044
 Frc consts  --      1.3852                 1.4089                 1.5225
 IR Inten    --     34.6675                47.7742               104.6396

                     52                     53                     54
                      A                      A                      A
 Frequencies --   1240.8780              1267.0469              1283.0689
 Red. masses --      1.7722                 1.3791                 1.2843
 Frc consts  --      1.6078                 1.3045                 1.2457
 IR Inten    --      4.3527                14.9176                25.6808

                     55                     56                     57
                      A                      A                      A
 Frequencies --   1299.8366              1324.8877              1351.1941
 Red. masses --      1.3216                 1.2257                 1.2872
 Frc consts  --      1.3156                 1.2676                 1.3847
 IR Inten    --     18.3948                42.5275                 0.6360

                     58                     59                     60
                      A                      A                      A
 Frequencies --   1367.9486              1407.4760              1415.8394
 Red. masses --      1.2395                 1.3438                 1.3364
 Frc consts  --      1.3666                 1.5684                 1.5784
 IR Inten    --      4.5885                11.0438                29.2837

                     61                     62                     63
                      A                      A                      A
 Frequencies --   1417.0064              1432.3620              1469.0044
 Red. masses --      1.4265                 1.3535                 1.1729
 Frc consts  --      1.6875                 1.6361                 1.4912
 IR Inten    --     33.4230                29.5826                 6.8375

                     64                     65                     66
                      A                      A                      A
 Frequencies --   1498.1900              1499.5327              1500.0863
 Red. masses --      1.1073                 1.1308                 1.1365
 Frc consts  --      1.4644                 1.4981                 1.5067
 IR Inten    --      1.4264                 7.6585                 3.9021

                     67                     68                     69
                      A                      A                      A
 Frequencies --   1503.9645              1511.2514              1511.3680
 Red. masses --      1.1400                 1.0464                 1.0768
 Frc consts  --      1.5193                 1.4080                 1.4491
 IR Inten    --      0.7357                 9.8747                 2.4309

                     70                     71                     72
                      A                      A                      A
 Frequencies --   1514.3414              1514.8162              1520.2572
 Red. masses --      1.0588                 1.0658                 1.0690
 Frc consts  --      1.4306                 1.4409                 1.4557
 IR Inten    --     16.5289                 3.6499                17.5216

                     73                     74                     75
                      A                      A                      A
 Frequencies --   1528.3391              1534.4626              1537.0323
 Red. masses --      1.0514                 1.0529                 1.0544
 Frc consts  --      1.4470                 1.4607                 1.4676
 IR Inten    --     19.9354                27.1635                 2.3897

                     76                     77                     78
                      A                      A                      A
 Frequencies --   1538.4306              1659.9946              2993.0781
 Red. masses --      1.0918                 7.5908                 1.0789
 Frc consts  --      1.5225                12.3239                 5.6949
 IR Inten    --      8.3004               241.3919                25.5967

                     79                     80                     81
                      A                      A                      A
 Frequencies --   3018.8648              3025.8411              3030.9370
 Red. masses --      1.0481                 1.0418                 1.0627
 Frc consts  --      5.6279                 5.6198                 5.7517
 IR Inten    --     39.0006                63.9383                 3.6786

                     82                     83                     84
                      A                      A                      A
 Frequencies --   3035.1918              3038.7761              3039.8069
 Red. masses --      1.0565                 1.0413                 1.0400
 Frc consts  --      5.7343                 5.6652                 5.6619
 IR Inten    --     24.0764                23.6394                94.8774

                     85                     86                     87
                      A                      A                      A
 Frequencies --   3058.6617              3080.7738              3108.7601
 Red. masses --      1.1072                 1.1071                 1.1018
 Frc consts  --      6.1031                 6.1911                 6.2735
 IR Inten    --     47.3562                46.7727                50.8894

                     88                     89                     90
                      A                      A                      A
 Frequencies --   3110.4324              3115.2761              3116.4397
 Red. masses --      1.0857                 1.1004                 1.0963
 Frc consts  --      6.1888                 6.2924                 6.2735
 IR Inten    --      9.7649                33.4102                46.1473

                     91                     92                     93
                      A                      A                      A
 Frequencies --   3145.7385              3161.3428              3165.2472
 Red. masses --      1.0873                 1.1001                 1.1031
 Frc consts  --      6.3396                 6.4779                 6.5117
 IR Inten    --      1.8846                25.4340                17.0840

                     94                     95                     96
                      A                      A                      A
 Frequencies --   3165.6305              3181.3222              3190.1034
 Red. masses --      1.1018                 1.1018                 1.0940
 Frc consts  --      6.5054                 6.5701                 6.5598
 IR Inten    --     29.6053                13.5628                 1.1530

 - Thermochemistry -
 -------------------
 Temperature   298.150 Kelvin.  Pressure   1.00000 Atm.
 Atom     1 has atomic number  6 and mass  12.00000

 Molecular mass:   219.12325 amu.
 Principal axes and moments of inertia in atomic units:
                           1         2         3
     Eigenvalues --  2227.673674258.938945391.25354
           X            0.99991  -0.00772   0.01072
           Y            0.00790   0.99984  -0.01607
           Z           -0.01059   0.01615   0.99981
 This molecule is an asymmetric top.
 Rotational symmetry number  1.
 Warning -- assumption of classical behavior for rotation
           may cause significant error
 Rotational temperatures (Kelvin)      0.03888     0.02034     0.01607
 Rotational constants (GHZ):           0.81015     0.42375     0.33475
 Zero-point vibrational energy     774478.8 (Joules/Mol)
                                  185.10489 (Kcal/Mol)
 Warning -- explicit consideration of  26 degrees of freedom as
           vibrations may cause significant error
 Vibrational temperatures:     43.56    85.49   107.67   154.81   163.25
          (Kelvin)            165.94   177.38   201.88   250.61   258.69
                              272.82   299.75   330.94   350.15   366.56
                              396.51   429.84   445.84   483.51   520.21
                              586.47   632.75   678.51   716.40   802.01
                              880.98   948.97  1026.17  1076.42  1215.96
                             1311.04  1327.15  1374.91  1423.77  1451.51
                             1507.12  1518.07  1551.00  1605.79  1625.52
                             1638.02  1669.97  1671.42  1684.99  1701.33
                             1702.98  1711.14  1718.23  1755.88  1762.85
                             1771.58  1785.35  1823.00  1846.05  1870.18
                             1906.22  1944.07  1968.17  2025.04  2037.08
                             2038.76  2060.85  2113.57  2155.56  2157.49
                             2158.29  2163.87  2174.35  2174.52  2178.80
                             2179.48  2187.31  2198.94  2207.75  2211.45
                             2213.46  2388.36  4306.37  4343.47  4353.51
                             4360.84  4366.96  4372.12  4373.60  4400.73
                             4432.55  4472.81  4475.22  4482.19  4483.86
                             4526.02  4548.47  4554.08  4554.64  4577.21
                             4589.85

 Zero-point correction=                           0.294983 (Hartree/Particle)
 Thermal correction to Energy=                    0.312100
 Thermal correction to Enthalpy=                  0.313045
 Thermal correction to Gibbs Free Energy=         0.250202
 Sum of electronic and zero-point Energies=           -768.030187
 Sum of electronic and thermal Energies=              -768.013070
 Sum of electronic and thermal Enthalpies=            -768.012126
 Sum of electronic and thermal Free Energies=         -768.074969

                     E (Thermal)             CV                S
                      KCal/Mol        Cal/Mol-Kelvin    Cal/Mol-Kelvin
 Total                  195.846             61.504            132.263
 Electronic               0.000              0.000              0.000
 Translational            0.889              2.981             42.056
 Rotational               0.889              2.981             32.303
 Vibrational            194.069             55.542             57.903
 Vibration     1          0.594              1.984              5.811
 Vibration     2          0.597              1.974              4.476
 Vibration     3          0.599              1.966              4.022
 Vibration     4          0.606              1.943              3.312
 Vibration     5          0.607              1.938              3.209
 Vibration     6          0.608              1.937              3.177
 Vibration     7          0.610              1.930              3.048
 Vibration     8          0.615              1.913              2.800
 Vibration     9          0.627              1.874              2.390
 Vibration    10          0.629              1.867              2.330
 Vibration    11          0.633              1.854              2.232
 Vibration    12          0.642              1.828              2.058
 Vibration    13          0.652              1.795              1.879
 Vibration    14          0.659              1.774              1.778
 Vibration    15          0.665              1.755              1.697
 Vibration    16          0.677              1.719              1.561
 Vibration    17          0.692              1.676              1.424
 Vibration    18          0.699              1.655              1.363
 Vibration    19          0.717              1.603              1.231
 Vibration    20          0.736              1.551              1.115
 Vibration    21          0.772              1.454              0.935
 Vibration    22          0.800              1.383              0.827
 Vibration    23          0.829              1.313              0.733
 Vibration    24          0.853              1.255              0.663
 Vibration    25          0.913              1.123              0.529
 Vibration    26          0.972              1.006              0.429

 Optimization completed.
    -- Stationary point found.
 Normal termination of Gaussian 16 at Fri May 24 09:24:57 2019.
