 Gaussian 16, Revision A.03,
 Gaussian 16:  ES64L-G16RevA.03 25-Dec-2016

 -------------------------------------------------------------------
 #p b3lyp 6-31g* opt freq=noraman scrf=(pcm,solvent=tetrahydrofuran)
 -------------------------------------------------------------------

 -----
 title
 -----
 Symbolic Z-matrix:
 Charge =  1 Multiplicity = 1

 SCF Done:  E(RB3LYP) =  -768.327997290     A.U. after   13 cycles
 Optimization completed.
    -- Stationary point found.
 Normal termination of Gaussian 16 at Fri May 24 08:46:34 2019.

 --------------------------------------------------------------------
 #P Geom=AllCheck Guess=TCheck SCRF=Check GenChk RB3LYP/6-31G(d) Freq
 --------------------------------------------------------------------

 Structure from the checkpoint file:  "/scratch/Gau-59237.chk"
 -----
 title
 -----
 Charge =  1 Multiplicity = 1

                         Standard orientation:
 ---------------------------------------------------------------------
 Center     Atomic      Atomic             Coordinates (Angstroms)
 Number     Number       Type             X           Y           Z
 ---------------------------------------------------------------------
      1          6           0       -0.612213    0.674569   -0.636157
      2          6           0       -1.423247    0.764513    0.705304
      3          6           0       -1.088806   -0.302268    1.695957
      4          6           0        0.935187   -0.968269    0.568064
      5          6           0        0.149396   -0.658240   -0.708055
      6          1           0       -1.764744   -0.488881    2.533061
      7          1           0       -1.025848    1.657558    1.226002
      8          1           0       -1.332617    0.694488   -1.462397
      9          1           0        1.272122   -2.004891    0.570972
     10          1           0        0.862897   -0.617694   -1.538921
     11          8           0       -0.026451   -0.973667    1.724799
     12          8           0       -2.804055    0.970489    0.626653
     13          8           0        0.315267    1.725567   -0.748688
     14          8           0       -0.851179   -1.641956   -0.892612
     15          6           0        2.110873   -0.060116    0.932877
     16          1           0        2.495406   -0.346555    1.923523
     17          1           0        1.800439    0.991498    0.962369
     18          8           0        3.059108   -0.291749   -0.083231
     19          6           0       -3.572095   -0.099248    0.049387
     20          1           0       -3.459396   -1.028447    0.622049
     21          1           0       -4.610026    0.230364    0.098420
     22          1           0       -3.291962   -0.285793   -0.991409
     23          6           0       -0.261860    2.977612   -1.126095
     24          1           0       -0.962181    3.349680   -0.366032
     25          1           0       -0.787689    2.888615   -2.085105
     26          1           0        0.566314    3.680719   -1.223464
     27          6           0       -0.426315   -2.830367   -1.566663
     28          1           0       -1.310711   -3.462949   -1.654336
     29          1           0       -0.043108   -2.591263   -2.566060
     30          1           0        0.344887   -3.370122   -1.003435
     31          6           0        4.213706    0.531799    0.043589
     32          1           0        3.951086    1.596461   -0.023624
     33          1           0        4.876695    0.269004   -0.782791
     34          1           0        4.729151    0.348816    0.996572
 ---------------------------------------------------------------------

 SCF Done:  E(RB3LYP) =  -768.327997290     A.U. after    1 cycles

 The electronic state is 1-A.
 Alpha  occ. eigenvalues --  -19.32945 -19.20829 -19.19906 -19.19674 -19.18493
 Alpha  occ. eigenvalues --  -10.39776 -10.31930 -10.31784 -10.29708 -10.29538
 Alpha  occ. eigenvalues --  -10.27687 -10.25941 -10.25643 -10.25478 -10.24660
 Alpha  occ. eigenvalues --   -1.21750  -1.09594  -1.08370  -1.07434  -1.06747
 Alpha  occ. eigenvalues --   -0.87096  -0.85384  -0.78139  -0.74964  -0.73727
 Alpha  occ. eigenvalues --   -0.71170  -0.69360  -0.68190  -0.66533  -0.62079
 Alpha  occ. eigenvalues --   -0.59086  -0.58811  -0.56623  -0.54303  -0.54028
 Alpha  occ. eigenvalues --   -0.52795  -0.51468  -0.50503  -0.50337  -0.49318
 Alpha  occ. eigenvalues --   -0.48454  -0.47816  -0.47169  -0.46157  -0.45625
 Alpha  occ. eigenvalues --   -0.45207  -0.43054  -0.42464  -0.41116  -0.40714
 Alpha  occ. eigenvalues --   -0.39399  -0.36912  -0.36329  -0.36057  -0.35209
 Alpha  occ. eigenvalues --   -0.33060  -0.30511  -0.29340  -0.28647
 Alpha virt. eigenvalues --   -0.15143   0.00633   0.03425   0.04880   0.06536
 Alpha virt. eigenvalues --    0.06886   0.08371   0.08719   0.09676   0.10692
 Alpha virt. eigenvalues --    0.11657   0.11859   0.12327   0.12971   0.13277

 Mulliken charges:
               1
     1  C    0.127146
     2  C    0.028708
     3  C    0.275298
     4  C    0.055468
     5  C    0.057073
     6  H    0.279127
     7  H    0.265785
     8  H    0.197030
     9  H    0.235379
    10  H    0.209214
    11  O   -0.307412
    12  O   -0.468869
    13  O   -0.487393
    14  O   -0.492867
    15  C   -0.016123
    16  H    0.170362
    17  H    0.172738
    18  O   -0.481466
    19  C   -0.239011
    20  H    0.164426
    21  H    0.195843
    22  H    0.179946
    23  C   -0.228476
    24  H    0.164033
    25  H    0.169647
    26  H    0.188912
    27  C   -0.223806
    28  H    0.188627
    29  H    0.172181
    30  H    0.165042
    31  C   -0.210286
    32  H    0.157764
    33  H    0.179425
    34  H    0.156531
 Sum of Mulliken charges =   1.00000

 Dipole moment (field-independent basis, Debye):
    X=             -1.4404    Y=             -0.8292    Z=              2.6771  Tot=              3.1511
 Quadrupole moment (field-independent basis, Debye-Ang):
   XX=            -67.3285   YY=            -71.9883   ZZ=            -73.5748
   XY=              4.2940   XZ=              0.2959   YZ=             -0.0017

  Exact polarizability: 158.645  -0.143 140.463  -3.546  -1.936 128.898
 Approx polarizability: 172.065  -4.338 159.476  -4.388  -2.211 151.528

                      1                      2                      3
                      A                      A                      A
 Frequencies --     48.2418                62.6123                64.6961
 Red. masses --      3.5610                 3.3624                 3.1798
 Frc consts  --      0.0049                 0.0078                 0.0078
 IR Inten    --      0.3533                 3.9611                 3.1918

                      4                      5                      6
                      A                      A                      A
 Frequencies --     78.8892                90.0458               100.8093
 Red. masses --      2.6879                 3.0659                 2.6032
 Frc consts  --      0.0099                 0.0146                 0.0156
 IR Inten    --      1.6569                 7.8435                 2.4473

                      7                      8                      9
                      A                      A                      A
 Frequencies --    119.5034               146.4709               156.3926
 Red. masses --      2.5377                 2.6125                 1.8312
 Frc consts  --      0.0214                 0.0330                 0.0264
 IR Inten    --      3.6966                 6.5554                 5.4704

                     10                     11                     12
                      A                      A                      A
 Frequencies --    174.4214               183.2914               188.6468
 Red. masses --      1.5632                 1.2108                 1.5618
 Frc consts  --      0.0280                 0.0240                 0.0327
 IR Inten    --      0.7672                 0.8083                 1.9246

                     13                     14                     15
                      A                      A                      A
 Frequencies --    201.1953               232.3437               274.6144
 Red. masses --      1.6256                 1.7717                 3.0597
 Frc consts  --      0.0388                 0.0564                 0.1359
 IR Inten    --      3.1380                 9.6516                 2.0730

                     16                     17                     18
                      A                      A                      A
 Frequencies --    280.2845               318.1814               328.3089
 Red. masses --      3.7146                 3.2264                 4.3360
 Frc consts  --      0.1719                 0.1924                 0.2754
 IR Inten    --      1.5225                 5.4235                12.3879

                     19                     20                     21
                      A                      A                      A
 Frequencies --    346.1648               373.8353               393.5746
 Red. masses --      3.8638                 4.3192                 5.2509
 Frc consts  --      0.2728                 0.3556                 0.4792
 IR Inten    --      4.0854                14.4436                10.6291

                     22                     23                     24
                      A                      A                      A
 Frequencies --    426.8328               472.6415               523.8937
 Red. masses --      4.3821                 4.0880                 4.3603
 Frc consts  --      0.4704                 0.5381                 0.7051
 IR Inten    --     22.0985                 7.9482                 9.7144

                     25                     26                     27
                      A                      A                      A
 Frequencies --    570.6217               598.5353               629.1170
 Red. masses --      4.4023                 4.0954                 4.0536
 Frc consts  --      0.8445                 0.8644                 0.9453
 IR Inten    --     14.9411                 0.0519                24.1969

                     28                     29                     30
                      A                      A                      A
 Frequencies --    738.8180               786.7383               856.9476
 Red. masses --      4.0389                 2.7431                 2.6916
 Frc consts  --      1.2989                 1.0004                 1.1646
 IR Inten    --     68.0471                 3.0288                12.5065

                     31                     32                     33
                      A                      A                      A
 Frequencies --    912.6167               951.2810               965.0004
 Red. masses --      3.2968                 4.7173                 3.4344
 Frc consts  --      1.6178                 2.5151                 1.8843
 IR Inten    --      5.4298                81.8635                68.9330

                     34                     35                     36
                      A                      A                      A
 Frequencies --    982.5384               996.9851              1027.5269
 Red. masses --      2.3234                 4.1457                 2.6691
 Frc consts  --      1.3215                 2.4279                 1.6604
 IR Inten    --     11.9562                14.9178                13.2977

                     37                     38                     39
                      A                      A                      A
 Frequencies --   1059.1982              1086.2133              1113.1270
 Red. masses --      2.9949                 2.1532                 3.5431
 Frc consts  --      1.9796                 1.4968                 2.5866
 IR Inten    --      8.1189                92.7109                58.3586

                     40                     41                     42
                      A                      A                      A
 Frequencies --   1135.7901              1138.5189              1152.6949
 Red. masses --      2.4811                 2.0101                 3.3334
 Frc consts  --      1.8858                 1.5352                 2.6095
 IR Inten    --     52.5464                97.5230               266.7756

                     43                     44                     45
                      A                      A                      A
 Frequencies --   1160.1047              1170.7563              1180.8545
 Red. masses --      4.4317                 3.4289                 1.3013
 Frc consts  --      3.5141                 2.7691                 1.0691
 IR Inten    --    255.9681                75.8510                12.7394

                     46                     47                     48
                      A                      A                      A
 Frequencies --   1186.9869              1188.8815              1190.0155
 Red. masses --      1.3021                 1.2968                 1.3278
 Frc consts  --      1.0809                 1.0800                 1.1079
 IR Inten    --      8.6721                 5.7804                17.3362

                     49                     50                     51
                      A                      A                      A
 Frequencies --   1219.5337              1222.6604              1230.1455
 Red. masses --      1.4978                 1.5498                 1.6888
 Frc consts  --      1.3125                 1.3651                 1.5057
 IR Inten    --     15.0748                61.7511                35.6891

                     52                     53                     54
                      A                      A                      A
 Frequencies --   1235.5464              1252.6140              1260.0217
 Red. masses --      1.6684                 1.8024                 1.2190
 Frc consts  --      1.5006                 1.6663                 1.1403
 IR Inten    --     30.3117                42.2508                 6.9505

                     55                     56                     57
                      A                      A                      A
 Frequencies --   1307.5394              1334.4207              1340.0813
 Red. masses --      1.4177                 1.2570                 1.2959
 Frc consts  --      1.4280                 1.3188                 1.3711
 IR Inten    --     25.2623                22.6900                 0.8691

                     58                     59                     60
                      A                      A                      A
 Frequencies --   1354.0236              1366.7480              1387.2784
 Red. masses --      1.3075                 1.3331                 1.3168
 Frc consts  --      1.4124                 1.4672                 1.4931
 IR Inten    --     14.4939                16.5885                33.6614

                     61                     62                     63
                      A                      A                      A
 Frequencies --   1415.9518              1430.4103              1452.3063
 Red. masses --      1.3559                 1.5082                 1.2905
 Frc consts  --      1.6016                 1.8181                 1.6036
 IR Inten    --     39.2369                 6.5875                33.3447

                     64                     65                     66
                      A                      A                      A
 Frequencies --   1498.4765              1499.1722              1501.7378
 Red. masses --      1.1264                 1.1200                 1.1496
 Frc consts  --      1.4902                 1.4831                 1.5275
 IR Inten    --      1.7689                 1.3885                 2.1738

                     67                     68                     69
                      A                      A                      A
 Frequencies --   1502.6237              1509.2029              1512.3464
 Red. masses --      1.1103                 1.0470                 1.0578
 Frc consts  --      1.4770                 1.4051                 1.4255
 IR Inten    --      5.6675                 7.9605                 5.8324

                     70                     71                     72
                      A                      A                      A
 Frequencies --   1514.8417              1516.3296              1520.1298
 Red. masses --      1.0508                 1.0607                 1.0782
 Frc consts  --      1.4207                 1.4369                 1.4680
 IR Inten    --      3.8880                15.2977                15.9864

                     73                     74                     75
                      A                      A                      A
 Frequencies --   1525.2212              1527.0348              1528.1303
 Red. masses --      1.0617                 1.0656                 1.0658
 Frc consts  --      1.4551                 1.4640                 1.4664
 IR Inten    --      7.3201                33.7135                 5.5200

                     76                     77                     78
                      A                      A                      A
 Frequencies --   1556.4335              1641.7124              2969.8858
 Red. masses --      1.0848                 6.0892                 1.0779
 Frc consts  --      1.5483                 9.6694                 5.6014
 IR Inten    --      5.3833               195.8312                24.0716

                     79                     80                     81
                      A                      A                      A
 Frequencies --   3019.3156              3024.5526              3028.9523
 Red. masses --      1.0539                 1.0434                 1.0360
 Frc consts  --      5.6608                 5.6237                 5.6003
 IR Inten    --     39.3019                75.3734                50.1176

                     82                     83                     84
                      A                      A                      A
 Frequencies --   3040.9681              3046.2577              3075.9759
 Red. masses --      1.0336                 1.0389                 1.0855
 Frc consts  --      5.6315                 5.6800                 6.0514
 IR Inten    --     53.8901                28.8825                30.6690

                     85                     86                     87
                      A                      A                      A
 Frequencies --   3077.9473              3087.8977              3091.6244
 Red. masses --      1.1038                 1.1010                 1.1024
 Frc consts  --      6.1611                 6.1855                 6.2081
 IR Inten    --     74.4011                 4.0838                53.5818

                     88                     89                     90
                      A                      A                      A
 Frequencies --   3093.0808              3105.0534              3123.6277
 Red. masses --      1.0896                 1.1056                 1.0991
 Frc consts  --      6.1417                 6.2804                 6.3183
 IR Inten    --      3.3739                41.3487                36.6693

                     91                     92                     93
                      A                      A                      A
 Frequencies --   3159.3350              3159.9184              3170.6099
 Red. masses --      1.0876                 1.1000                 1.1018
 Frc consts  --      6.3963                 6.4711                 6.5256
 IR Inten    --      4.2936                24.9553                20.1097

                     94                     95                     96
                      A                      A                      A
 Frequencies --   3172.3274              3183.1517              3189.6120
 Red. masses --      1.1005                 1.1036                 1.0943
 Frc consts  --      6.5254                 6.5882                 6.5596
 IR Inten    --     21.2846                18.4806                 2.2578

 - Thermochemistry -
 -------------------
 Temperature   298.150 Kelvin.  Pressure   1.00000 Atm.
 Atom     1 has atomic number  6 and mass  12.00000

 Molecular mass:   219.12325 amu.
 Principal axes and moments of inertia in atomic units:
                           1         2         3
     Eigenvalues --  2349.089923986.709804744.49209
           X            0.99977   0.01892   0.01027
           Y           -0.01909   0.99967   0.01728
           Z           -0.00994  -0.01747   0.99980
 This molecule is an asymmetric top.
 Rotational symmetry number  1.
 Warning -- assumption of classical behavior for rotation
           may cause significant error
 Rotational temperatures (Kelvin)      0.03687     0.02173     0.01826
 Rotational constants (GHZ):           0.76827     0.45269     0.38039
 Zero-point vibrational energy     773676.0 (Joules/Mol)
                                  184.91300 (Kcal/Mol)
 Warning -- explicit consideration of  26 degrees of freedom as
           vibrations may cause significant error
 Vibrational temperatures:     69.41    90.09    93.08   113.50   129.56
          (Kelvin)            145.04   171.94   210.74   225.01   250.95
                              263.72   271.42   289.48   334.29   395.11
                              403.27   457.79   472.36   498.05   537.87
                              566.27   614.12   680.03   753.77   821.00
                              861.16   905.16  1062.99  1131.94  1232.96
                             1313.05  1368.68  1388.42  1413.65  1434.44
                             1478.38  1523.95  1562.82  1601.54  1634.15
                             1638.07  1658.47  1669.13  1684.46  1698.99
                             1707.81  1710.54  1712.17  1754.64  1759.14
                             1769.90  1777.68  1802.23  1812.89  1881.26
                             1919.93  1928.08  1948.14  1966.45  1995.98
                             2037.24  2058.04  2089.54  2155.97  2156.97
                             2160.67  2161.94  2171.41  2175.93  2179.52
                             2181.66  2187.13  2194.45  2197.06  2198.64
                             2239.36  2362.06  4273.00  4344.12  4351.66
                             4357.99  4375.27  4382.89  4425.64  4428.48
                             4442.80  4448.16  4450.25  4467.48  4494.20
                             4545.58  4546.42  4561.80  4564.27  4579.85
                             4589.14

 Zero-point correction=                           0.294678 (Hartree/Particle)
 Thermal correction to Energy=                    0.311928
 Thermal correction to Enthalpy=                  0.312873
 Thermal correction to Gibbs Free Energy=         0.249652
 Sum of electronic and zero-point Energies=           -768.033320
 Sum of electronic and thermal Energies=              -768.016069
 Sum of electronic and thermal Enthalpies=            -768.015125
 Sum of electronic and thermal Free Energies=         -768.078346

                     E (Thermal)             CV                S
                      KCal/Mol        Cal/Mol-Kelvin    Cal/Mol-Kelvin
 Total                  195.738             61.491            133.060
 Electronic               0.000              0.000              0.000
 Translational            0.889              2.981             42.056
 Rotational               0.889              2.981             32.163
 Vibrational            193.961             55.530             58.841
 Vibration     1          0.595              1.978              4.888
 Vibration     2          0.597              1.972              4.373
 Vibration     3          0.597              1.971              4.309
 Vibration     4          0.600              1.963              3.918
 Vibration     5          0.602              1.956              3.659
 Vibration     6          0.604              1.948              3.439
 Vibration     7          0.609              1.933              3.108
 Vibration     8          0.617              1.906              2.718
 Vibration     9          0.620              1.896              2.593
 Vibration    10          0.627              1.874              2.387
 Vibration    11          0.631              1.863              2.295
 Vibration    12          0.633              1.855              2.241
 Vibration    13          0.638              1.838              2.122
 Vibration    14          0.653              1.791              1.861
 Vibration    15          0.677              1.720              1.567
 Vibration    16          0.680              1.710              1.532
 Vibration    17          0.705              1.639              1.319
 Vibration    18          0.712              1.619              1.268
 Vibration    19          0.724              1.583              1.184
 Vibration    20          0.745              1.526              1.064
 Vibration    21          0.761              1.484              0.987
 Vibration    22          0.788              1.412              0.869
 Vibration    23          0.830              1.311              0.730
 Vibration    24          0.879              1.197              0.601
 Vibration    25          0.927              1.095              0.503
 Vibration    26          0.957              1.035              0.452

 Optimization completed.
    -- Stationary point found.
 Normal termination of Gaussian 16 at Fri May 24 09:44:33 2019.
