 Gaussian 16, Revision A.03,
 Gaussian 16:  ES64L-G16RevA.03 25-Dec-2016

 -------------------------------------------------------------------
 #p b3lyp 6-31g* opt freq=noraman scrf=(pcm,solvent=tetrahydrofuran)
 -------------------------------------------------------------------

 -----
 title
 -----
 Symbolic Z-matrix:
 Charge =  1 Multiplicity = 1

 SCF Done:  E(RB3LYP) =  -768.321552587     A.U. after   13 cycles
 Optimization completed.
    -- Stationary point found.

 1\1\GINC-KOU51\FOpt\RB3LYP\6-31G(d)\C10H19O5(1+)\EKWAN\24-May-2019\0\\
 #p b3lyp 6-31g* opt freq=noraman scrf=(pcm,solvent=tetrahydrofuran)\\t
 itle\\1,1\C,1.315166,0.245475,-0.123712\C,1.305024,-1.259047,-0.493405
 \C,0.167504,-1.980815,0.152161\C,-1.246996,0.004203,0.276089\C,-0.1029
 63,0.811586,-0.38078\H,0.246121,-3.049381,0.3632\H,1.059859,-1.308876,
 -1.572011\H,1.596258,0.364655,0.932049\H,-1.412289,0.288843,1.314806\H
 ,-0.241832,0.790468,-1.467184\O,-0.94045,-1.470874,0.439132\O,2.495729
 ,-1.973728,-0.360381\O,2.267729,0.824638,-0.975633\O,-0.270015,2.17749

 Normal termination of Gaussian 16 at Fri May 24 08:33:46 2019.

 --------------------------------------------------------------------
 #P Geom=AllCheck Guess=TCheck SCRF=Check GenChk RB3LYP/6-31G(d) Freq
 --------------------------------------------------------------------

 Structure from the checkpoint file:  "/scratch/Gau-12232.chk"
 -----
 title
 -----
 Charge =  1 Multiplicity = 1

                         Standard orientation:
 ---------------------------------------------------------------------
 Center     Atomic      Atomic             Coordinates (Angstroms)
 Number     Number       Type             X           Y           Z
 ---------------------------------------------------------------------
      1          6           0        1.315166    0.245475   -0.123712
      2          6           0        1.305024   -1.259047   -0.493405
      3          6           0        0.167504   -1.980815    0.152161
      4          6           0       -1.246996    0.004203    0.276089
      5          6           0       -0.102963    0.811586   -0.380780
      6          1           0        0.246121   -3.049381    0.363200
      7          1           0        1.059859   -1.308876   -1.572011
      8          1           0        1.596258    0.364655    0.932049
      9          1           0       -1.412289    0.288843    1.314806
     10          1           0       -0.241832    0.790468   -1.467184
     11          8           0       -0.940450   -1.470874    0.439132
     12          8           0        2.495729   -1.973728   -0.360381
     13          8           0        2.267729    0.824638   -0.975633
     14          8           0       -0.270015    2.177490   -0.048900
     15          6           0       -2.553102    0.080299   -0.490362
     16          1           0       -2.453543   -0.430360   -1.462484
     17          1           0       -2.732358    1.148763   -0.691674
     18          8           0       -3.566614   -0.486882    0.298269
     19          6           0        3.155995   -1.879696    0.908745
     20          1           0        3.953657   -2.622411    0.880051
     21          1           0        3.592436   -0.887091    1.058749
     22          1           0        2.477445   -2.114440    1.739807
     23          6           0        2.890659    2.028079   -0.518340
     24          1           0        3.724117    2.211075   -1.198842
     25          1           0        2.199831    2.875816   -0.552400
     26          1           0        3.282110    1.907784    0.500728
     27          6           0       -0.035081    2.596019    1.301706
     28          1           0       -0.294453    3.655382    1.320805
     29          1           0       -0.666526    2.069116    2.025902
     30          1           0        1.014726    2.483271    1.590038
     31          6           0       -4.844274   -0.427725   -0.326964
     32          1           0       -5.146355    0.611744   -0.517456
     33          1           0       -5.552803   -0.890094    0.362591
     34          1           0       -4.849018   -0.979685   -1.277400
 ---------------------------------------------------------------------

 SCF Done:  E(RB3LYP) =  -768.321552587     A.U. after    1 cycles

 The electronic state is 1-A.
 Alpha  occ. eigenvalues --  -19.33306 -19.20827 -19.20110 -19.19297 -19.18328
 Alpha  occ. eigenvalues --  -10.39989 -10.32341 -10.32199 -10.30141 -10.30101
 Alpha  occ. eigenvalues --  -10.27996 -10.26226 -10.25794 -10.25105 -10.24641
 Alpha  occ. eigenvalues --   -1.21975  -1.09906  -1.08381  -1.06840  -1.06637
 Alpha  occ. eigenvalues --   -0.87468  -0.86164  -0.77774  -0.75723  -0.73953
 Alpha  occ. eigenvalues --   -0.72263  -0.68868  -0.68117  -0.65592  -0.63112
 Alpha  occ. eigenvalues --   -0.60563  -0.58897  -0.55852  -0.55016  -0.54169
 Alpha  occ. eigenvalues --   -0.52717  -0.52041  -0.51247  -0.50411  -0.49227
 Alpha  occ. eigenvalues --   -0.48843  -0.48009  -0.46502  -0.45896  -0.45491
 Alpha  occ. eigenvalues --   -0.44557  -0.43238  -0.42350  -0.42102  -0.41402
 Alpha  occ. eigenvalues --   -0.40169  -0.37405  -0.35544  -0.35363  -0.35146
 Alpha  occ. eigenvalues --   -0.32251  -0.31613  -0.29008  -0.28580
 Alpha virt. eigenvalues --   -0.15458  -0.00394   0.04294   0.04711   0.06452
 Alpha virt. eigenvalues --    0.06830   0.07504   0.07810   0.08666   0.10492
 Alpha virt. eigenvalues --    0.10982   0.11452   0.11941   0.12015   0.13342

 Mulliken charges:
               1
     1  C    0.088636
     2  C    0.040046
     3  C    0.282780
     4  C    0.048031
     5  C    0.096247
     6  H    0.283461
     7  H    0.260303
     8  H    0.176608
     9  H    0.236411
    10  H    0.198019
    11  O   -0.297233
    12  O   -0.465640
    13  O   -0.479738
    14  O   -0.479678
    15  C   -0.021587
    16  H    0.169277
    17  H    0.187119
    18  O   -0.481021
    19  C   -0.241660
    20  H    0.200139
    21  H    0.181008
    22  H    0.161511
    23  C   -0.228845
    24  H    0.185452
    25  H    0.175316
    26  H    0.160197
    27  C   -0.243159
    28  H    0.196533
    29  H    0.167425
    30  H    0.165497
    31  C   -0.213210
    32  H    0.157078
    33  H    0.179196
    34  H    0.155479
 Sum of Mulliken charges =   1.00000

 Dipole moment (field-independent basis, Debye):
    X=             -0.0092    Y=             -2.4538    Z=              2.2385  Tot=              3.3215
 Quadrupole moment (field-independent basis, Debye-Ang):
   XX=            -64.9867   YY=            -70.5831   ZZ=            -82.3735
   XY=              0.5071   XZ=             11.6682   YZ=              1.8714

  Exact polarizability: 165.136  -1.756 148.071  -1.941   0.711 117.855
 Approx polarizability: 172.032  -3.244 165.685  -7.052  -0.475 148.975

                      1                      2                      3
                      A                      A                      A
 Frequencies --     48.8816                59.9610                77.1908
 Red. masses --      3.7126                 3.0207                 2.8258
 Frc consts  --      0.0052                 0.0064                 0.0099
 IR Inten    --      0.5532                 1.4889                 0.1427

                      4                      5                      6
                      A                      A                      A
 Frequencies --     88.8169                95.1075               114.5040
 Red. masses --      2.8400                 2.4233                 2.9839
 Frc consts  --      0.0132                 0.0129                 0.0231
 IR Inten    --      5.3313                12.3746                 1.8157

                      7                      8                      9
                      A                      A                      A
 Frequencies --    124.2918               136.8882               161.3199
 Red. masses --      1.4902                 2.8024                 2.2837
 Frc consts  --      0.0136                 0.0309                 0.0350
 IR Inten    --      2.5839                 4.5360                 0.7253

                     10                     11                     12
                      A                      A                      A
 Frequencies --    195.4646               212.0873               212.9609
 Red. masses --      1.6021                 2.0212                 1.6323
 Frc consts  --      0.0361                 0.0536                 0.0436
 IR Inten    --      0.4071                 6.7682                 3.6900

                     13                     14                     15
                      A                      A                      A
 Frequencies --    225.7833               249.0730               260.8500
 Red. masses --      1.5526                 1.7737                 2.3059
 Frc consts  --      0.0466                 0.0648                 0.0924
 IR Inten    --      2.3181                 7.0110                 3.3268

                     16                     17                     18
                      A                      A                      A
 Frequencies --    274.6583               284.2332               312.1705
 Red. masses --      4.2892                 3.4446                 4.7470
 Frc consts  --      0.1906                 0.1640                 0.2726
 IR Inten    --     13.3990                14.3560                 3.3047

                     19                     20                     21
                      A                      A                      A
 Frequencies --    328.2677               353.2722               415.1681
 Red. masses --      3.2368                 3.8838                 4.9666
 Frc consts  --      0.2055                 0.2856                 0.5044
 IR Inten    --      7.1806                 5.1018                 7.0664

                     22                     23                     24
                      A                      A                      A
 Frequencies --    458.5693               471.1059               510.9178
 Red. masses --      4.8208                 4.1373                 3.7029
 Frc consts  --      0.5973                 0.5410                 0.5695
 IR Inten    --      3.0242                 9.1146                17.8184

                     25                     26                     27
                      A                      A                      A
 Frequencies --    548.3382               588.0993               634.0855
 Red. masses --      3.4849                 3.7637                 2.9048
 Frc consts  --      0.6174                 0.7670                 0.6881
 IR Inten    --      5.2121                13.3650                18.3285

                     28                     29                     30
                      A                      A                      A
 Frequencies --    700.3398               726.5489               865.1812
 Red. masses --      4.2220                 4.0172                 2.1347
 Frc consts  --      1.2201                 1.2494                 0.9414
 IR Inten    --     48.3029                70.8401                32.3680

                     31                     32                     33
                      A                      A                      A
 Frequencies --    908.8834               961.9115               970.6975
 Red. masses --      3.7493                 4.1276                 3.7989
 Frc consts  --      1.8248                 2.2502                 2.1090
 IR Inten    --     29.2914                78.6922                35.2934

                     34                     35                     36
                      A                      A                      A
 Frequencies --    980.9225              1008.4041              1055.1598
 Red. masses --      4.4830                 2.8631                 2.7149
 Frc consts  --      2.5415                 1.7153                 1.7809
 IR Inten    --     39.6432                18.7514                22.0831

                     37                     38                     39
                      A                      A                      A
 Frequencies --   1062.1646              1084.2923              1105.7396
 Red. masses --      3.6281                 3.6871                 2.5388
 Frc consts  --      2.4116                 2.5541                 1.8288
 IR Inten    --     53.1928                12.1471                25.4100

                     40                     41                     42
                      A                      A                      A
 Frequencies --   1139.8323              1150.1764              1161.3694
 Red. masses --      2.9860                 2.7940                 3.7955
 Frc consts  --      2.2857                 2.1777                 3.0162
 IR Inten    --     92.8225                34.6904               134.2453

                     43                     44                     45
                      A                      A                      A
 Frequencies --   1164.0795              1173.6041              1181.3962
 Red. masses --      3.8017                 1.6717                 1.3146
 Frc consts  --      3.0352                 1.3566                 1.0810
 IR Inten    --    282.7189                37.7060                15.4143

                     46                     47                     48
                      A                      A                      A
 Frequencies --   1187.8555              1190.0005              1195.0644
 Red. masses --      1.3192                 1.3054                 2.1140
 Frc consts  --      1.0967                 1.0891                 1.7789
 IR Inten    --      3.8369                 3.7993               118.1427

                     49                     50                     51
                      A                      A                      A
 Frequencies --   1224.9368              1226.4729              1233.1640
 Red. masses --      1.5111                 1.5586                 1.8828
 Frc consts  --      1.3359                 1.3814                 1.6869
 IR Inten    --     41.0283                83.6484                24.5473

                     52                     53                     54
                      A                      A                      A
 Frequencies --   1238.5725              1261.0821              1278.8645
 Red. masses --      1.7649                 1.4987                 1.3717
 Frc consts  --      1.5952                 1.4043                 1.3217
 IR Inten    --     28.4737                15.4737                14.4708

                     55                     56                     57
                      A                      A                      A
 Frequencies --   1300.0958              1356.7196              1363.7518
 Red. masses --      1.2125                 1.2288                 1.2202
 Frc consts  --      1.2075                 1.3326                 1.3371
 IR Inten    --     24.3698                53.3317                10.4578

                     58                     59                     60
                      A                      A                      A
 Frequencies --   1381.8961              1393.3433              1413.7974
 Red. masses --      1.2206                 1.2351                 1.3225
 Frc consts  --      1.3733                 1.4128                 1.5575
 IR Inten    --     10.7903                 5.6343                17.7478

                     61                     62                     63
                      A                      A                      A
 Frequencies --   1425.4679              1444.0725              1446.4219
 Red. masses --      1.2654                 1.2074                 1.3999
 Frc consts  --      1.5150                 1.4835                 1.7256
 IR Inten    --     18.5437                34.0737                32.1415

                     64                     65                     66
                      A                      A                      A
 Frequencies --   1497.8225              1498.6367              1503.2756
 Red. masses --      1.1324                 1.1442                 1.1414
 Frc consts  --      1.4968                 1.5140                 1.5198
 IR Inten    --      6.8396                 1.9298                 2.4534

                     67                     68                     69
                      A                      A                      A
 Frequencies --   1504.3777              1509.2218              1509.8938
 Red. masses --      1.1186                 1.0464                 1.0800
 Frc consts  --      1.4915                 1.4042                 1.4507
 IR Inten    --      1.0243                 9.0592                 3.9677

                     70                     71                     72
                      A                      A                      A
 Frequencies --   1519.9466              1522.4323              1523.3109
 Red. masses --      1.0500                 1.0620                 1.0535
 Frc consts  --      1.4292                 1.4503                 1.4403
 IR Inten    --     10.5321                21.7122                24.9607

                     73                     74                     75
                      A                      A                      A
 Frequencies --   1528.0372              1530.0061              1539.9869
 Red. masses --      1.0598                 1.0480                 1.0943
 Frc consts  --      1.4579                 1.4454                 1.5291
 IR Inten    --     14.6918                11.2700                 2.6920

                     76                     77                     78
                      A                      A                      A
 Frequencies --   1540.4622              1660.6368              2962.6015
 Red. masses --      1.0586                 7.0246                 1.0789
 Frc consts  --      1.4801                11.4135                 5.5793
 IR Inten    --      8.0474               215.7841                30.9814

                     79                     80                     81
                      A                      A                      A
 Frequencies --   2999.7633              3019.8846              3036.0772
 Red. masses --      1.0551                 1.0359                 1.1049
 Frc consts  --      5.5942                 5.5660                 6.0006
 IR Inten    --     33.8883                65.2943                44.1341

                     82                     83                     84
                      A                      A                      A
 Frequencies --   3040.3102              3041.5627              3049.9773
 Red. masses --      1.0391                 1.0381                 1.0574
 Frc consts  --      5.6591                 5.6582                 5.7955
 IR Inten    --     25.0482                63.1149                 5.4073

                     85                     86                     87
                      A                      A                      A
 Frequencies --   3055.3856              3074.3012              3081.9308
 Red. masses --      1.0584                 1.1067                 1.0864
 Frc consts  --      5.8216                 6.1625                 6.0796
 IR Inten    --     51.4915                55.9654                16.9566

                     88                     89                     90
                      A                      A                      A
 Frequencies --   3115.9578              3119.0385              3120.6217
 Red. masses --      1.1007                 1.1029                 1.1004
 Frc consts  --      6.2967                 6.3213                 6.3137
 IR Inten    --     40.7350                55.3961                46.7733

                     91                     92                     93
                      A                      A                      A
 Frequencies --   3160.5159              3163.8672              3165.5130
 Red. masses --      1.0995                 1.0869                 1.1037
 Frc consts  --      6.4710                 6.4105                 6.5163
 IR Inten    --     28.6824                 2.0853                22.6951

                     94                     95                     96
                      A                      A                      A
 Frequencies --   3170.6306              3179.0868              3190.4211
 Red. masses --      1.1018                 1.1019                 1.0944
 Frc consts  --      6.5261                 6.5614                 6.5633
 IR Inten    --     16.1848                16.8266                 1.7523

 - Thermochemistry -
 -------------------
 Temperature   298.150 Kelvin.  Pressure   1.00000 Atm.
 Atom     1 has atomic number  6 and mass  12.00000

 Molecular mass:   219.12325 amu.
 Principal axes and moments of inertia in atomic units:
                           1         2         3
     Eigenvalues --  2136.607924644.870836119.74630
           X            0.99985   0.00597   0.01617
           Y           -0.00612   0.99994   0.00931
           Z           -0.01611  -0.00940   0.99983
 This molecule is an asymmetric top.
 Rotational symmetry number  1.
 Warning -- assumption of classical behavior for rotation
           may cause significant error
 Rotational temperatures (Kelvin)      0.04054     0.01865     0.01415
 Rotational constants (GHZ):           0.84468     0.38854     0.29490
 Zero-point vibrational energy     774820.3 (Joules/Mol)
                                  185.18650 (Kcal/Mol)
 Warning -- explicit consideration of  26 degrees of freedom as
           vibrations may cause significant error
 Vibrational temperatures:     70.33    86.27   111.06   127.79   136.84
          (Kelvin)            164.75   178.83   196.95   232.10   281.23
                              305.15   306.40   324.85   358.36   375.30
                              395.17   408.95   449.14   472.30   508.28
                              597.33   659.78   677.82   735.10   788.94
                              846.14   912.31  1007.63  1045.34  1244.80
                             1307.68  1383.98  1396.62  1411.33  1450.87
                             1518.14  1528.22  1560.05  1590.91  1639.96
                             1654.85  1670.95  1674.85  1688.55  1699.77
                             1709.06  1712.15  1719.43  1762.41  1764.62
                             1774.25  1782.03  1814.42  1840.00  1870.55
                             1952.02  1962.13  1988.24  2004.71  2034.14
                             2050.93  2077.70  2081.08  2155.03  2156.20
                             2162.88  2164.46  2171.43  2172.40  2186.86
                             2190.44  2191.70  2198.50  2201.34  2215.70
                             2216.38  2389.29  4262.52  4315.99  4344.94
                             4368.24  4374.33  4376.13  4388.24  4396.02
                             4423.23  4434.21  4483.17  4487.60  4489.88
                             4547.28  4552.10  4554.47  4561.83  4574.00
                             4590.30

 Zero-point correction=                           0.295113 (Hartree/Particle)
 Thermal correction to Energy=                    0.312234
 Thermal correction to Enthalpy=                  0.313178
 Thermal correction to Gibbs Free Energy=         0.250467
 Sum of electronic and zero-point Energies=           -768.026439
 Sum of electronic and thermal Energies=              -768.009318
 Sum of electronic and thermal Enthalpies=            -768.008374
 Sum of electronic and thermal Free Energies=         -768.071085

                     E (Thermal)             CV                S
                      KCal/Mol        Cal/Mol-Kelvin    Cal/Mol-Kelvin
 Total                  195.930             61.490            131.986
 Electronic               0.000              0.000              0.000
 Translational            0.889              2.981             42.056
 Rotational               0.889              2.981             32.474
 Vibrational            194.152             55.528             57.456
 Vibration     1          0.595              1.978              4.862
 Vibration     2          0.597              1.973              4.458
 Vibration     3          0.599              1.964              3.961
 Vibration     4          0.602              1.957              3.686
 Vibration     5          0.603              1.953              3.552
 Vibration     6          0.607              1.937              3.191
 Vibration     7          0.610              1.929              3.033
 Vibration     8          0.614              1.916              2.847
 Vibration     9          0.622              1.890              2.534
 Vibration    10          0.636              1.846              2.175
 Vibration    11          0.643              1.822              2.026
 Vibration    12          0.644              1.821              2.018
 Vibration    13          0.650              1.802              1.912
 Vibration    14          0.662              1.764              1.737
 Vibration    15          0.669              1.744              1.656
 Vibration    16          0.677              1.720              1.567
 Vibration    17          0.683              1.703              1.508
 Vibration    18          0.701              1.650              1.351
 Vibration    19          0.711              1.619              1.269
 Vibration    20          0.729              1.569              1.152
 Vibration    21          0.779              1.437              0.909
 Vibration    22          0.817              1.342              0.770
 Vibration    23          0.828              1.314              0.734
 Vibration    24          0.866              1.226              0.631
 Vibration    25          0.904              1.143              0.548
 Vibration    26          0.945              1.057              0.471

 Optimization completed.
    -- Stationary point found.

 1\1\GINC-KOU51\Freq\RB3LYP\6-31G(d)\C10H19O5(1+)\EKWAN\24-May-2019\0\\
 #P Geom=AllCheck Guess=TCheck SCRF=Check GenChk RB3LYP/6-31G(d) Freq\\
 title\\1,1\C,1.315166,0.245475,-0.123712\C,1.305024,-1.259047,-0.49340
 5\C,0.167504,-1.980815,0.152161\C,-1.246996,0.004203,0.276089\C,-0.102
 963,0.811586,-0.38078\H,0.246121,-3.049381,0.3632\H,1.059859,-1.308876
 ,-1.572011\H,1.596258,0.364655,0.932049\H,-1.412289,0.288843,1.314806\
 H,-0.241832,0.790468,-1.467184\O,-0.94045,-1.470874,0.439132\O,2.49572
 9,-1.973728,-0.360381\O,2.267729,0.824638,-0.975633\O,-0.270015,2.1774

 Normal termination of Gaussian 16 at Fri May 24 08:56:37 2019.
