 Gaussian 16, Revision A.03,
 Gaussian 16:  ES64L-G16RevA.03 25-Dec-2016

 -------------------------------------------------------------------
 #p b3lyp 6-31g* opt freq=noraman scrf=(pcm,solvent=tetrahydrofuran)
 -------------------------------------------------------------------

 -----
 title
 -----
 Symbolic Z-matrix:
 Charge =  1 Multiplicity = 1

 SCF Done:  E(RB3LYP) =  -768.327125720     A.U. after   14 cycles
 Optimization completed.
    -- Stationary point found.
 Normal termination of Gaussian 16 at Fri May 24 08:38:55 2019.

 --------------------------------------------------------------------
 #P Geom=AllCheck Guess=TCheck SCRF=Check GenChk RB3LYP/6-31G(d) Freq
 --------------------------------------------------------------------

 Structure from the checkpoint file:  "/scratch/Gau-60771.chk"
 -----
 title
 -----
 Charge =  1 Multiplicity = 1

                         Standard orientation:
 ---------------------------------------------------------------------
 Center     Atomic      Atomic             Coordinates (Angstroms)
 Number     Number       Type             X           Y           Z
 ---------------------------------------------------------------------
      1          6           0       -1.102853    0.526048   -0.277572
      2          6           0       -1.414108   -0.978980   -0.056018
      3          6           0       -0.413025   -1.852206   -0.737411
      4          6           0        1.276351   -0.096789   -0.955531
      5          6           0        0.398507    0.757960   -0.017091
      6          1           0       -0.677281   -2.884759   -0.971368
      7          1           0       -1.314828   -1.220396    1.019069
      8          1           0       -1.346112    0.739307   -1.323361
      9          1           0        1.269036    0.279992   -1.979637
     10          1           0        0.642425    0.462763    1.007499
     11          8           0        0.724626   -1.498964   -1.128706
     12          8           0       -2.660508   -1.361574   -0.569354
     13          8           0       -1.963919    1.352624    0.465088
     14          8           0        0.820459    2.101291   -0.111685
     15          6           0        2.699294   -0.295227   -0.472291
     16          1           0        3.171080    0.698786   -0.443303
     17          1           0        3.253646   -0.916164   -1.191689
     18          8           0        2.644568   -0.895861    0.799630
     19          6           0       -3.708282   -1.513825    0.400920
     20          1           0       -4.589665   -1.825252   -0.160809
     21          1           0       -3.453713   -2.284763    1.137737
     22          1           0       -3.907752   -0.562083    0.902907
     23          6           0       -1.686679    1.518647    1.860233
     24          1           0       -0.764344    2.086361    2.017247
     25          1           0       -2.531070    2.081960    2.259992
     26          1           0       -1.624131    0.559275    2.390753
     27          6           0        0.336546    2.878454   -1.215679
     28          1           0       -0.742333    3.044253   -1.138895
     29          1           0        0.855598    3.835291   -1.143598
     30          1           0        0.573565    2.423380   -2.185571
     31          6           0        3.929957   -1.067716    1.387944
     32          1           0        4.565297   -1.717087    0.770189
     33          1           0        4.434527   -0.101913    1.527829
     34          1           0        3.769991   -1.537279    2.360202
 ---------------------------------------------------------------------

 SCF Done:  E(RB3LYP) =  -768.327125720     A.U. after    1 cycles

 The electronic state is 1-A.
 Alpha  occ. eigenvalues --  -19.33092 -19.20797 -19.19655 -19.19520 -19.18665
 Alpha  occ. eigenvalues --  -10.39684 -10.32238 -10.31842 -10.29564 -10.29485
 Alpha  occ. eigenvalues --  -10.27784 -10.25770 -10.25278 -10.25236 -10.24816
 Alpha  occ. eigenvalues --   -1.21654  -1.09648  -1.08234  -1.06968  -1.06375
 Alpha  occ. eigenvalues --   -0.87315  -0.85880  -0.77452  -0.75648  -0.73852
 Alpha  occ. eigenvalues --   -0.71405  -0.69280  -0.67931  -0.65620  -0.61835
 Alpha  occ. eigenvalues --   -0.60586  -0.58616  -0.55929  -0.55233  -0.53593
 Alpha  occ. eigenvalues --   -0.52835  -0.51590  -0.51017  -0.50217  -0.49261
 Alpha  occ. eigenvalues --   -0.48373  -0.47766  -0.46660  -0.45747  -0.45129
 Alpha  occ. eigenvalues --   -0.43931  -0.43246  -0.42363  -0.41893  -0.41097
 Alpha  occ. eigenvalues --   -0.40414  -0.37108  -0.36215  -0.35733  -0.34390
 Alpha  occ. eigenvalues --   -0.32628  -0.30689  -0.29172  -0.28482
 Alpha virt. eigenvalues --   -0.15198  -0.00299   0.04851   0.05380   0.05563
 Alpha virt. eigenvalues --    0.07034   0.07956   0.09121   0.09625   0.10586
 Alpha virt. eigenvalues --    0.11513   0.11621   0.12409   0.12943   0.13239

 Mulliken charges:
               1
     1  C    0.116005
     2  C    0.029139
     3  C    0.306346
     4  C    0.047887
     5  C    0.078505
     6  H    0.278868
     7  H    0.233380
     8  H    0.192370
     9  H    0.237440
    10  H    0.200295
    11  O   -0.305754
    12  O   -0.476713
    13  O   -0.478803
    14  O   -0.483074
    15  C   -0.025199
    16  H    0.185492
    17  H    0.177982
    18  O   -0.485303
    19  C   -0.231569
    20  H    0.192819
    21  H    0.171355
    22  H    0.181826
    23  C   -0.243244
    24  H    0.180044
    25  H    0.189867
    26  H    0.157144
    27  C   -0.241727
    28  H    0.179442
    29  H    0.189597
    30  H    0.160206
    31  C   -0.211032
    32  H    0.158015
    33  H    0.160259
    34  H    0.178135
 Sum of Mulliken charges =   1.00000

 Dipole moment (field-independent basis, Debye):
    X=              0.6832    Y=             -3.8696    Z=             -1.1490  Tot=              4.0940
 Quadrupole moment (field-independent basis, Debye-Ang):
   XX=            -63.3473   YY=            -72.4732   ZZ=            -75.8357
   XY=              4.2384   XZ=             -6.9692   YZ=             -2.1121

  Exact polarizability: 162.327   3.638 147.247  -9.492   1.169 127.221
 Approx polarizability: 175.196   1.909 166.055  -9.078   2.788 152.757

                      1                      2                      3
                      A                      A                      A
 Frequencies --     43.2106                54.1795                68.9074
 Red. masses --      3.9700                 3.2563                 3.5440
 Frc consts  --      0.0044                 0.0056                 0.0099
 IR Inten    --      2.5814                 2.1001                 0.3349

                      4                      5                      6
                      A                      A                      A
 Frequencies --     76.9769                96.7911               126.8007
 Red. masses --      2.8034                 2.6411                 2.7302
 Frc consts  --      0.0098                 0.0146                 0.0259
 IR Inten    --      5.9356                11.2105                 0.1257

                      7                      8                      9
                      A                      A                      A
 Frequencies --    135.2377               146.9718               170.9853
 Red. masses --      2.7724                 2.4248                 1.2116
 Frc consts  --      0.0299                 0.0309                 0.0209
 IR Inten    --      2.7494                 9.2946                 0.8914

                     10                     11                     12
                      A                      A                      A
 Frequencies --    176.6461               194.9459               201.6677
 Red. masses --      2.4470                 1.4068                 1.3598
 Frc consts  --      0.0450                 0.0315                 0.0326
 IR Inten    --      0.2160                 1.3936                 0.7868

                     13                     14                     15
                      A                      A                      A
 Frequencies --    228.5582               247.3928               255.2399
 Red. masses --      1.4697                 3.4238                 2.9758
 Frc consts  --      0.0452                 0.1235                 0.1142
 IR Inten    --      6.3776                 6.6940                 4.3803

                     16                     17                     18
                      A                      A                      A
 Frequencies --    285.1809               294.6245               298.6538
 Red. masses --      2.5700                 3.6169                 3.7337
 Frc consts  --      0.1231                 0.1850                 0.1962
 IR Inten    --     20.4035                 0.4414                 0.4199

                     19                     20                     21
                      A                      A                      A
 Frequencies --    345.8720               360.1162               413.0521
 Red. masses --      3.7761                 4.0081                 4.0443
 Frc consts  --      0.2662                 0.3063                 0.4065
 IR Inten    --      6.2545                 2.7752                12.6168

                     22                     23                     24
                      A                      A                      A
 Frequencies --    425.5772               481.2335               512.4927
 Red. masses --      3.7754                 4.2174                 4.3401
 Frc consts  --      0.4029                 0.5754                 0.6716
 IR Inten    --      8.6132                 8.0695                 9.6054

                     25                     26                     27
                      A                      A                      A
 Frequencies --    561.1440               588.8884               662.0677
 Red. masses --      3.6965                 3.8524                 3.8732
 Frc consts  --      0.6858                 0.7871                 1.0003
 IR Inten    --     20.9534                27.8689                18.6268

                     28                     29                     30
                      A                      A                      A
 Frequencies --    736.9846               750.9857               854.7993
 Red. masses --      4.0313                 4.4812                 2.0200
 Frc consts  --      1.2901                 1.4891                 0.8696
 IR Inten    --     58.5817                67.1964                22.7507

                     31                     32                     33
                      A                      A                      A
 Frequencies --    913.2253               922.5817               958.3394
 Red. masses --      4.4138                 3.4478                 3.7950
 Frc consts  --      2.1688                 1.7290                 2.0535
 IR Inten    --     26.3950                12.6926                54.2614

                     34                     35                     36
                      A                      A                      A
 Frequencies --    981.9122              1019.4739              1035.2072
 Red. masses --      4.4979                 2.2805                 4.0921
 Frc consts  --      2.5551                 1.3964                 2.5838
 IR Inten    --     24.0593                17.1913                43.1250

                     37                     38                     39
                      A                      A                      A
 Frequencies --   1049.0705              1085.7747              1110.6339
 Red. masses --      2.4336                 3.1653                 3.2624
 Frc consts  --      1.5780                 2.1986                 2.3710
 IR Inten    --     56.6211                70.6428                31.9822

                     40                     41                     42
                      A                      A                      A
 Frequencies --   1130.2880              1148.8222              1158.0157
 Red. masses --      2.5804                 3.5894                 2.8778
 Frc consts  --      1.9423                 2.7911                 2.2737
 IR Inten    --     51.2349               196.7728                70.9405

                     43                     44                     45
                      A                      A                      A
 Frequencies --   1161.2488              1170.2324              1176.5066
 Red. masses --      3.5490                 2.3539                 1.2809
 Frc consts  --      2.8197                 1.8992                 1.0446
 IR Inten    --    248.0997                42.1695                 9.4418

                     46                     47                     48
                      A                      A                      A
 Frequencies --   1188.3281              1188.9129              1192.0191
 Red. masses --      1.3459                 1.3992                 1.3825
 Frc consts  --      1.1198                 1.1653                 1.1574
 IR Inten    --     15.7784                16.3709                 4.8242

                     49                     50                     51
                      A                      A                      A
 Frequencies --   1219.9488              1228.3507              1232.3177
 Red. masses --      1.6494                 1.6688                 1.6081
 Frc consts  --      1.4463                 1.4835                 1.4388
 IR Inten    --     64.3548                70.0687                12.2020

                     52                     53                     54
                      A                      A                      A
 Frequencies --   1239.6238              1257.7326              1281.8575
 Red. masses --      1.7112                 1.3935                 1.2624
 Frc consts  --      1.5493                 1.2987                 1.2222
 IR Inten    --     80.1835                 4.9203                51.9316

                     55                     56                     57
                      A                      A                      A
 Frequencies --   1303.7568              1335.6620              1357.0081
 Red. masses --      1.3270                 1.2742                 1.2627
 Frc consts  --      1.3289                 1.3393                 1.3700
 IR Inten    --     49.4219                49.0104                 0.0775

                     58                     59                     60
                      A                      A                      A
 Frequencies --   1361.9946              1409.0732              1424.0539
 Red. masses --      1.2639                 1.3416                 1.4994
 Frc consts  --      1.3814                 1.5695                 1.7915
 IR Inten    --      1.4869                46.9248                 8.3058

                     61                     62                     63
                      A                      A                      A
 Frequencies --   1430.3973              1435.7956              1476.3302
 Red. masses --      1.3401                 1.2448                 1.1688
 Frc consts  --      1.6154                 1.5120                 1.5010
 IR Inten    --     26.1966                 4.4677                 9.9001

                     64                     65                     66
                      A                      A                      A
 Frequencies --   1494.8018              1497.2469              1499.2709
 Red. masses --      1.1497                 1.1413                 1.1369
 Frc consts  --      1.5136                 1.5074                 1.5057
 IR Inten    --      1.4106                 2.3524                 4.7408

                     67                     68                     69
                      A                      A                      A
 Frequencies --   1505.7292              1510.0806              1511.2311
 Red. masses --      1.1423                 1.0462                 1.0555
 Frc consts  --      1.5259                 1.4056                 1.4203
 IR Inten    --      0.8679                 9.7677                 7.9637

                     70                     71                     72
                      A                      A                      A
 Frequencies --   1515.4859              1516.8829              1520.3319
 Red. masses --      1.0468                 1.0466                 1.0686
 Frc consts  --      1.4165                 1.4188                 1.4553
 IR Inten    --      8.9029                 9.3273                18.3541

                     73                     74                     75
                      A                      A                      A
 Frequencies --   1526.6005              1535.1377              1536.4945
 Red. masses --      1.0505                 1.0514                 1.0547
 Frc consts  --      1.4425                 1.4599                 1.4670
 IR Inten    --     11.5116                 2.5566                26.3494

                     76                     77                     78
                      A                      A                      A
 Frequencies --   1538.3715              1648.2639              2970.2628
 Red. masses --      1.0884                 7.2492                 1.0783
 Frc consts  --      1.5176                11.6037                 5.6049
 IR Inten    --      9.7658               321.1151                18.6995

                     79                     80                     81
                      A                      A                      A
 Frequencies --   3018.5400              3025.2432              3039.6804
 Red. masses --      1.0504                 1.0395                 1.0385
 Frc consts  --      5.6392                 5.6051                 5.6536
 IR Inten    --     36.0208                67.5448                42.3080

                     82                     83                     84
                      A                      A                      A
 Frequencies --   3047.3077              3051.6242              3056.9667
 Red. masses --      1.0364                 1.0337                 1.1069
 Frc consts  --      5.6705                 5.6716                 6.0948
 IR Inten    --     45.5322                46.6129                46.3883

                     85                     86                     87
                      A                      A                      A
 Frequencies --   3081.2360              3097.2940              3111.9134
 Red. masses --      1.1071                 1.0859                 1.0915
 Frc consts  --      6.1926                 6.1377                 6.2274
 IR Inten    --     46.4354                 7.8111                32.9427

                     88                     89                     90
                      A                      A                      A
 Frequencies --   3117.9290              3121.3103              3127.9889
 Red. masses --      1.0924                 1.1019                 1.1056
 Frc consts  --      6.2571                 6.3249                 6.3734
 IR Inten    --     23.1436                40.1040                28.0139

                     91                     92                     93
                      A                      A                      A
 Frequencies --   3157.6341              3160.4486              3169.1748
 Red. masses --      1.0868                 1.1001                 1.1028
 Frc consts  --      6.3846                 6.4740                 6.5261
 IR Inten    --      2.8170                25.0348                19.0302

                     94                     95                     96
                      A                      A                      A
 Frequencies --   3169.9976              3178.4989              3198.1712
 Red. masses --      1.1034                 1.1039                 1.0941
 Frc consts  --      6.5326                 6.5710                 6.5932
 IR Inten    --     20.3731                18.0563                 1.6943

 - Thermochemistry -
 -------------------
 Temperature   298.150 Kelvin.  Pressure   1.00000 Atm.
 Atom     1 has atomic number  6 and mass  12.00000

 Molecular mass:   219.12325 amu.
 Principal axes and moments of inertia in atomic units:
                           1         2         3
     Eigenvalues --  2372.526524182.769535212.93132
           X            0.99997   0.00252  -0.00762
           Y           -0.00277   0.99946  -0.03261
           Z            0.00754   0.03263   0.99944
 This molecule is an asymmetric top.
 Rotational symmetry number  1.
 Warning -- assumption of classical behavior for rotation
           may cause significant error
 Rotational temperatures (Kelvin)      0.03651     0.02071     0.01662
 Rotational constants (GHZ):           0.76068     0.43147     0.34620
 Zero-point vibrational energy     775406.4 (Joules/Mol)
                                  185.32658 (Kcal/Mol)
 Warning -- explicit consideration of  26 degrees of freedom as
           vibrations may cause significant error
 Vibrational temperatures:     62.17    77.95    99.14   110.75   139.26
          (Kelvin)            182.44   194.58   211.46   246.01   254.15
                              280.48   290.15   328.84   355.94   367.23
                              410.31   423.90   429.70   497.63   518.13
                              594.29   612.31   692.39   737.36   807.36
                              847.28   952.57  1060.36  1080.50  1229.87
                             1313.93  1327.39  1378.84  1412.75  1466.80
                             1489.43  1509.38  1562.19  1597.95  1626.23
                             1652.90  1666.13  1670.78  1683.70  1692.73
                             1709.74  1710.58  1715.05  1755.23  1767.32
                             1773.03  1783.54  1809.60  1844.31  1875.82
                             1921.72  1952.43  1959.61  2027.34  2048.90
                             2058.02  2065.79  2124.11  2150.69  2154.20
                             2157.12  2166.41  2172.67  2174.32  2180.45
                             2182.46  2187.42  2196.44  2208.72  2210.67
                             2213.37  2371.48  4273.55  4343.01  4352.65
                             4373.42  4384.40  4390.61  4398.29  4433.21
                             4456.32  4477.35  4486.00  4490.87  4500.48
                             4543.13  4547.18  4559.74  4560.92  4573.15
                             4601.46

 Zero-point correction=                           0.295337 (Hartree/Particle)
 Thermal correction to Energy=                    0.312477
 Thermal correction to Enthalpy=                  0.313421
 Thermal correction to Gibbs Free Energy=         0.250500
 Sum of electronic and zero-point Energies=           -768.031789
 Sum of electronic and thermal Energies=              -768.014649
 Sum of electronic and thermal Enthalpies=            -768.013705
 Sum of electronic and thermal Free Energies=         -768.076625

                     E (Thermal)             CV                S
                      KCal/Mol        Cal/Mol-Kelvin    Cal/Mol-Kelvin
 Total                  196.082             61.444            132.427
 Electronic               0.000              0.000              0.000
 Translational            0.889              2.981             42.056
 Rotational               0.889              2.981             32.314
 Vibrational            194.305             55.482             58.057
 Vibration     1          0.595              1.980              5.106
 Vibration     2          0.596              1.976              4.659
 Vibration     3          0.598              1.969              4.184
 Vibration     4          0.599              1.965              3.967
 Vibration     5          0.603              1.951              3.518
 Vibration     6          0.611              1.926              2.994
 Vibration     7          0.613              1.918              2.870
 Vibration     8          0.617              1.906              2.711
 Vibration     9          0.626              1.878              2.425
 Vibration    10          0.628              1.871              2.364
 Vibration    11          0.636              1.847              2.180
 Vibration    12          0.639              1.838              2.118
 Vibration    13          0.651              1.797              1.890
 Vibration    14          0.661              1.767              1.749
 Vibration    15          0.666              1.754              1.694
 Vibration    16          0.683              1.701              1.502
 Vibration    17          0.689              1.684              1.447
 Vibration    18          0.692              1.676              1.424
 Vibration    19          0.724              1.584              1.185
 Vibration    20          0.735              1.554              1.122
 Vibration    21          0.777              1.442              0.916
 Vibration    22          0.787              1.415              0.873
 Vibration    23          0.838              1.292              0.707
 Vibration    24          0.868              1.222              0.628
 Vibration    25          0.917              1.115              0.522
 Vibration    26          0.946              1.055              0.469

 Optimization completed.
    -- Stationary point found.
 Normal termination of Gaussian 16 at Fri May 24 09:26:58 2019.
