 Gaussian 16, Revision A.03,
 Gaussian 16:  ES64L-G16RevA.03 25-Dec-2016

 -------------------------------------------------------------------
 #p b3lyp 6-31g* opt freq=noraman scrf=(pcm,solvent=tetrahydrofuran)
 -------------------------------------------------------------------

 -----
 title
 -----
 Symbolic Z-matrix:
 Charge =  1 Multiplicity = 1

 SCF Done:  E(RB3LYP) =  -768.322002622     A.U. after   13 cycles
 Optimization completed.
    -- Stationary point found.
 Normal termination of Gaussian 16 at Fri May 24 08:33:24 2019.

 --------------------------------------------------------------------
 #P Geom=AllCheck Guess=TCheck SCRF=Check GenChk RB3LYP/6-31G(d) Freq
 --------------------------------------------------------------------

 Structure from the checkpoint file:  "/scratch/Gau-1465.chk"
 -----
 title
 -----
 Charge =  1 Multiplicity = 1

                         Standard orientation:
 ---------------------------------------------------------------------
 Center     Atomic      Atomic             Coordinates (Angstroms)
 Number     Number       Type             X           Y           Z
 ---------------------------------------------------------------------
      1          6           0        0.608147    0.863723    0.493552
      2          6           0        1.560414    0.530865   -0.670158
      3          6           0        1.118818   -0.600042   -1.545787
      4          6           0       -0.876546   -1.100542   -0.244361
      5          6           0       -0.310504   -0.313378    0.940121
      6          1           0        1.741314   -0.902850   -2.387596
      7          1           0        1.683646    1.435729   -1.277140
      8          1           0        1.226351    1.160181    1.350254
      9          1           0       -1.142674   -2.112773    0.058351
     10          1           0       -1.191317    0.143839    1.399210
     11          8           0        0.140380   -1.359632   -1.330632
     12          8           0        2.803223    0.004035   -0.226647
     13          8           0       -0.184934    1.940782    0.019911
     14          8           0        0.217816   -1.126673    1.966508
     15          6           0       -2.064885   -0.448382   -0.963612
     16          1           0       -2.333973   -1.057721   -1.839311
     17          1           0       -1.796429    0.561412   -1.304113
     18          8           0       -3.100654   -0.417266   -0.012012
     19          6           0        3.975647    0.652014   -0.755992
     20          1           0        3.962351    1.717313   -0.501569
     21          1           0        4.823048    0.160447   -0.278097
     22          1           0        4.044836    0.528839   -1.841962
     23          6           0       -0.678580    2.810612    1.041241
     24          1           0       -1.356074    2.294343    1.732486
     25          1           0        0.151172    3.249185    1.609874
     26          1           0       -1.229132    3.600437    0.527922
     27          6           0        1.253890   -2.058829    1.651830
     28          1           0        1.458694   -2.593847    2.580784
     29          1           0        0.932713   -2.792310    0.899231
     30          1           0        2.168129   -1.562452    1.311806
     31          6           0       -4.301602    0.154242   -0.522652
     32          1           0       -4.142851    1.193418   -0.842142
     33          1           0       -4.687289   -0.426532   -1.371718
     34          1           0       -5.027953    0.131676    0.291618
 ---------------------------------------------------------------------

 SCF Done:  E(RB3LYP) =  -768.322002622     A.U. after    1 cycles

 The electronic state is 1-A.
 Alpha  occ. eigenvalues --  -19.33029 -19.22951 -19.19514 -19.18671 -19.18648
 Alpha  occ. eigenvalues --  -10.39704 -10.31921 -10.31797 -10.29379 -10.28964
 Alpha  occ. eigenvalues --  -10.27818 -10.26858 -10.25340 -10.24852 -10.24760
 Alpha  occ. eigenvalues --   -1.21642  -1.10534  -1.07846  -1.06939  -1.06462
 Alpha  occ. eigenvalues --   -0.87039  -0.85411  -0.77261  -0.75546  -0.73993
 Alpha  occ. eigenvalues --   -0.71148  -0.68991  -0.68281  -0.66659  -0.61788
 Alpha  occ. eigenvalues --   -0.59407  -0.58161  -0.57162  -0.54373  -0.53580
 Alpha  occ. eigenvalues --   -0.52922  -0.51360  -0.50953  -0.50383  -0.49007
 Alpha  occ. eigenvalues --   -0.48444  -0.47850  -0.47179  -0.46194  -0.46063
 Alpha  occ. eigenvalues --   -0.44803  -0.42469  -0.42319  -0.41269  -0.40855
 Alpha  occ. eigenvalues --   -0.39493  -0.37979  -0.36650  -0.35701  -0.34252
 Alpha  occ. eigenvalues --   -0.33051  -0.31281  -0.29026  -0.28084
 Alpha virt. eigenvalues --   -0.15065   0.00278   0.02937   0.04924   0.06457
 Alpha virt. eigenvalues --    0.07000   0.08321   0.08966   0.09925   0.10839
 Alpha virt. eigenvalues --    0.11198   0.11668   0.12401   0.12726   0.12990

 Mulliken charges:
               1
     1  C    0.096058
     2  C    0.034636
     3  C    0.297367
     4  C    0.020213
     5  C    0.096678
     6  H    0.276515
     7  H    0.240479
     8  H    0.196619
     9  H    0.242046
    10  H    0.212334
    11  O   -0.312530
    12  O   -0.459146
    13  O   -0.490323
    14  O   -0.478376
    15  C   -0.023250
    16  H    0.173243
    17  H    0.173096
    18  O   -0.478604
    19  C   -0.233369
    20  H    0.188323
    21  H    0.204042
    22  H    0.183132
    23  C   -0.225423
    24  H    0.166800
    25  H    0.167617
    26  H    0.186286
    27  C   -0.261487
    28  H    0.187890
    29  H    0.153174
    30  H    0.181018
    31  C   -0.211633
    32  H    0.157100
    33  H    0.158153
    34  H    0.181321
 Sum of Mulliken charges =   1.00000

 Dipole moment (field-independent basis, Debye):
    X=              3.7988    Y=              0.8228    Z=             -5.3035  Tot=              6.5753
 Quadrupole moment (field-independent basis, Debye-Ang):
   XX=            -53.7106   YY=            -75.5687   ZZ=            -78.3421
   XY=             -0.5004   XZ=             -4.1341   YZ=              4.7174

  Exact polarizability: 173.937   2.727 136.207  -1.240   1.463 127.375
 Approx polarizability: 183.468   6.372 155.330   1.364   0.524 155.534

                      1                      2                      3
                      A                      A                      A
 Frequencies --     36.7246                50.8451                65.2692
 Red. masses --      3.8241                 3.8379                 2.5564
 Frc consts  --      0.0030                 0.0058                 0.0064
 IR Inten    --      1.6890                 0.4258                11.0487

                      4                      5                      6
                      A                      A                      A
 Frequencies --     77.7034                99.5346               106.8870
 Red. masses --      3.3791                 2.8965                 2.1109
 Frc consts  --      0.0120                 0.0169                 0.0142
 IR Inten    --      1.5925                 0.0936                 4.0551

                      7                      8                      9
                      A                      A                      A
 Frequencies --    122.1825               129.4089               154.7723
 Red. masses --      2.7071                 2.6154                 2.2197
 Frc consts  --      0.0238                 0.0258                 0.0313
 IR Inten    --      2.3900                 4.8097                 3.7936

                     10                     11                     12
                      A                      A                      A
 Frequencies --    174.5241               192.6358               195.8813
 Red. masses --      1.4902                 1.7093                 1.8583
 Frc consts  --      0.0267                 0.0374                 0.0420
 IR Inten    --      1.8408                 0.2784                 2.1527

                     13                     14                     15
                      A                      A                      A
 Frequencies --    213.5935               240.5467               246.9679
 Red. masses --      1.2433                 1.5767                 2.3447
 Frc consts  --      0.0334                 0.0538                 0.0843
 IR Inten    --      0.8855                17.3352                 3.7227

                     16                     17                     18
                      A                      A                      A
 Frequencies --    281.7415               301.0757               316.4829
 Red. masses --      3.9385                 3.4452                 3.9456
 Frc consts  --      0.1842                 0.1840                 0.2328
 IR Inten    --     25.1675                 4.4855                 3.0632

                     19                     20                     21
                      A                      A                      A
 Frequencies --    368.6682               380.1955               388.7365
 Red. masses --      4.8157                 3.9478                 4.8034
 Frc consts  --      0.3856                 0.3362                 0.4277
 IR Inten    --      1.2277                33.3807                 0.4212

                     22                     23                     24
                      A                      A                      A
 Frequencies --    430.8471               481.8570               508.4236
 Red. masses --      4.4421                 4.3512                 3.8197
 Frc consts  --      0.4858                 0.5952                 0.5817
 IR Inten    --      9.7137                 0.4700                13.9213

                     25                     26                     27
                      A                      A                      A
 Frequencies --    567.8392               584.3931               647.1842
 Red. masses --      5.1831                 3.9523                 4.3863
 Frc consts  --      0.9847                 0.7953                 1.0825
 IR Inten    --     34.4736                16.1899                 7.7821

                     28                     29                     30
                      A                      A                      A
 Frequencies --    756.9133               850.8010               856.7646
 Red. masses --      5.3923                 2.7040                 2.5003
 Frc consts  --      1.8202                 1.1532                 1.0813
 IR Inten    --     58.3166                16.4695                11.8546

                     31                     32                     33
                      A                      A                      A
 Frequencies --    906.2981               933.2167               947.8399
 Red. masses --      4.6947                 3.7074                 2.1390
 Frc consts  --      2.2720                 1.9023                 1.1322
 IR Inten    --     75.6994                15.3149                40.8955

                     34                     35                     36
                      A                      A                      A
 Frequencies --    975.0991              1003.6395              1030.1282
 Red. masses --      4.4345                 4.5929                 3.4877
 Frc consts  --      2.4842                 2.7258                 2.1806
 IR Inten    --      9.9381                54.3112                10.2930

                     37                     38                     39
                      A                      A                      A
 Frequencies --   1040.7809              1098.1236              1106.1010
 Red. masses --      2.2397                 2.7743                 3.1845
 Frc consts  --      1.4294                 1.9711                 2.2955
 IR Inten    --      2.8877               186.9708                98.2158

                     40                     41                     42
                      A                      A                      A
 Frequencies --   1110.8071              1136.1176              1144.4386
 Red. masses --      3.0338                 4.4782                 1.5299
 Frc consts  --      2.2055                 3.4057                 1.1806
 IR Inten    --     18.9842               228.5724                 9.6258

                     43                     44                     45
                      A                      A                      A
 Frequencies --   1159.6032              1168.3252              1181.6389
 Red. masses --      4.9197                 2.8327                 1.2698
 Frc consts  --      3.8977                 2.2782                 1.0446
 IR Inten    --    209.0270               104.5790                 2.1062

                     46                     47                     48
                      A                      A                      A
 Frequencies --   1188.4804              1192.4772              1193.3663
 Red. masses --      1.2737                 1.2706                 1.4466
 Frc consts  --      1.0600                 1.0646                 1.2138
 IR Inten    --      4.1216                 1.6827                32.3074

                     49                     50                     51
                      A                      A                      A
 Frequencies --   1209.3629              1226.0904              1234.6531
 Red. masses --      1.3824                 1.5311                 1.6196
 Frc consts  --      1.1912                 1.3561                 1.4546
 IR Inten    --     12.1413                 9.4312                25.8132

                     52                     53                     54
                      A                      A                      A
 Frequencies --   1236.5082              1248.4420              1282.0563
 Red. masses --      1.5499                 1.8899                 1.2336
 Frc consts  --      1.3962                 1.7355                 1.1947
 IR Inten    --     58.2757                 3.3073                 7.7919

                     55                     56                     57
                      A                      A                      A
 Frequencies --   1327.8829              1333.5075              1348.9091
 Red. masses --      1.2562                 1.2371                 1.2421
 Frc consts  --      1.3050                 1.2962                 1.3316
 IR Inten    --      6.9818                11.8190                21.7224

                     58                     59                     60
                      A                      A                      A
 Frequencies --   1366.8932              1382.8818              1397.9576
 Red. masses --      1.3710                 1.3859                 1.5722
 Frc consts  --      1.5092                 1.5615                 1.8102
 IR Inten    --      3.7336                49.6395                20.6307

                     61                     62                     63
                      A                      A                      A
 Frequencies --   1431.4379              1441.2664              1454.0460
 Red. masses --      1.3148                 1.3129                 1.2886
 Frc consts  --      1.5872                 1.6068                 1.6052
 IR Inten    --     11.4787                15.0308                49.6277

                     64                     65                     66
                      A                      A                      A
 Frequencies --   1490.6598              1497.8257              1502.7386
 Red. masses --      1.1161                 1.1188                 1.1494
 Frc consts  --      1.4612                 1.4788                 1.5293
 IR Inten    --     16.9515                 0.4397                 3.6128

                     67                     68                     69
                      A                      A                      A
 Frequencies --   1508.1485              1510.9039              1515.9086
 Red. masses --      1.1310                 1.0464                 1.0612
 Frc consts  --      1.5156                 1.4075                 1.4367
 IR Inten    --      2.4887                 9.1409                 6.1078

                     70                     71                     72
                      A                      A                      A
 Frequencies --   1516.3650              1519.7731              1524.0000
 Red. masses --      1.0660                 1.0499                 1.0598
 Frc consts  --      1.4441                 1.4288                 1.4503
 IR Inten    --     12.3857                17.1514                16.3851

                     73                     74                     75
                      A                      A                      A
 Frequencies --   1524.5090              1528.7236              1540.5651
 Red. masses --      1.0557                 1.0639                 1.0558
 Frc consts  --      1.4456                 1.4650                 1.4764
 IR Inten    --     18.8962                15.8821                17.3755

                     76                     77                     78
                      A                      A                      A
 Frequencies --   1550.5720              1642.0802              3015.3906
 Red. masses --      1.0916                 5.4718                 1.0503
 Frc consts  --      1.5464                 8.6930                 5.6267
 IR Inten    --      5.5134               331.0466                33.5402

                     79                     80                     81
                      A                      A                      A
 Frequencies --   3024.5935              3035.8166              3036.5802
 Red. masses --      1.0408                 1.0403                 1.0347
 Frc consts  --      5.6098                 5.6488                 5.6215
 IR Inten    --     71.5899                79.7271                22.3387

                     82                     83                     84
                      A                      A                      A
 Frequencies --   3054.5250              3064.7759              3066.6091
 Red. masses --      1.0319                 1.1035                 1.0882
 Frc consts  --      5.6724                 6.1071                 6.0292
 IR Inten    --     41.2467                56.3677                 9.3379

                     85                     86                     87
                      A                      A                      A
 Frequencies --   3079.1380              3086.2256              3097.9439
 Red. masses --      1.1073                 1.0829                 1.1069
 Frc consts  --      6.1853                 6.0772                 6.2588
 IR Inten    --     48.1262                 0.5682                48.3571

                     88                     89                     90
                      A                      A                      A
 Frequencies --   3112.4594              3117.4805              3128.2640
 Red. masses --      1.0848                 1.0944                 1.1088
 Frc consts  --      6.1918                 6.2669                 6.3931
 IR Inten    --      3.3688                29.9458                26.3203

                     91                     92                     93
                      A                      A                      A
 Frequencies --   3162.9871              3164.6897              3168.0595
 Red. masses --      1.0999                 1.1040                 1.1011
 Frc consts  --      6.4832                 6.5143                 6.5113
 IR Inten    --     24.6008                19.2544                21.2569

                     94                     95                     96
                      A                      A                      A
 Frequencies --   3170.1016              3186.5104              3210.9114
 Red. masses --      1.0876                 1.1040                 1.0939
 Frc consts  --      6.4397                 6.6048                 6.6446
 IR Inten    --      1.0173                10.8005                 1.4019

 - Thermochemistry -
 -------------------
 Temperature   298.150 Kelvin.  Pressure   1.00000 Atm.
 Atom     1 has atomic number  6 and mass  12.00000

 Molecular mass:   219.12325 amu.
 Principal axes and moments of inertia in atomic units:
                           1         2         3
     Eigenvalues --  2157.387074365.590474778.26082
           X            0.99996  -0.00765   0.00349
           Y            0.00763   0.99995   0.00647
           Z           -0.00354  -0.00645   0.99997
 This molecule is an asymmetric top.
 Rotational symmetry number  1.
 Warning -- assumption of classical behavior for rotation
           may cause significant error
 Rotational temperatures (Kelvin)      0.04015     0.01984     0.01813
 Rotational constants (GHZ):           0.83654     0.41340     0.37770
 Zero-point vibrational energy     775321.4 (Joules/Mol)
                                  185.30626 (Kcal/Mol)
 Warning -- explicit consideration of  26 degrees of freedom as
           vibrations may cause significant error
 Vibrational temperatures:     52.84    73.15    93.91   111.80   143.21
          (Kelvin)            153.79   175.79   186.19   222.68   251.10
                              277.16   281.83   307.31   346.09   355.33
                              405.36   433.18   455.35   530.43   547.02
                              559.31   619.89   693.28   731.51   816.99
                              840.81   931.15  1089.03  1224.11  1232.69
                             1303.96  1342.69  1363.73  1402.95  1444.01
                             1482.12  1497.45  1579.95  1591.43  1598.20
                             1634.62  1646.59  1668.41  1680.96  1700.11
                             1709.96  1715.71  1716.99  1740.00  1764.07
                             1776.39  1779.06  1796.23  1844.59  1910.53
                             1918.62  1940.78  1966.65  1989.66  2011.35
                             2059.52  2073.66  2092.05  2144.73  2155.04
                             2162.11  2169.89  2173.85  2181.05  2181.71
                             2186.61  2192.70  2193.43  2199.49  2216.53
                             2230.93  2362.59  4338.47  4351.72  4367.86
                             4368.96  4394.78  4409.53  4412.17  4430.19
                             4440.39  4457.25  4478.13  4485.36  4500.87
                             4550.83  4553.28  4558.13  4561.07  4584.68
                             4619.79

 Zero-point correction=                           0.295304 (Hartree/Particle)
 Thermal correction to Energy=                    0.312575
 Thermal correction to Enthalpy=                  0.313519
 Thermal correction to Gibbs Free Energy=         0.249954
 Sum of electronic and zero-point Energies=           -768.026698
 Sum of electronic and thermal Energies=              -768.009428
 Sum of electronic and thermal Enthalpies=            -768.008484
 Sum of electronic and thermal Free Energies=         -768.072048

                     E (Thermal)             CV                S
                      KCal/Mol        Cal/Mol-Kelvin    Cal/Mol-Kelvin
 Total                  196.144             61.411            133.784
 Electronic               0.000              0.000              0.000
 Translational            0.889              2.981             42.056
 Rotational               0.889              2.981             32.176
 Vibrational            194.366             55.449             59.551
 Vibration     1          0.594              1.982              5.428
 Vibration     2          0.595              1.977              4.784
 Vibration     3          0.597              1.971              4.291
 Vibration     4          0.599              1.964              3.948
 Vibration     5          0.604              1.949              3.463
 Vibration     6          0.606              1.944              3.325
 Vibration     7          0.610              1.931              3.066
 Vibration     8          0.612              1.924              2.955
 Vibration     9          0.620              1.897              2.613
 Vibration    10          0.627              1.874              2.386
 Vibration    11          0.635              1.850              2.202
 Vibration    12          0.636              1.846              2.171
 Vibration    13          0.644              1.820              2.013
 Vibration    14          0.658              1.778              1.799
 Vibration    15          0.661              1.768              1.752
 Vibration    16          0.681              1.707              1.523
 Vibration    17          0.693              1.672              1.411
 Vibration    18          0.703              1.642              1.328
 Vibration    19          0.741              1.537              1.085
 Vibration    20          0.750              1.512              1.038
 Vibration    21          0.757              1.494              1.005
 Vibration    22          0.792              1.403              0.856
 Vibration    23          0.838              1.290              0.705
 Vibration    24          0.864              1.231              0.637
 Vibration    25          0.924              1.101              0.508
 Vibration    26          0.941              1.065              0.477

                           ! Non-Optimized Parameters !
 Normal termination of Gaussian 16 at Fri May 24 08:58:09 2019.
