 Gaussian 16, Revision A.03,
 Gaussian 16:  ES64L-G16RevA.03 25-Dec-2016

 -------------------------------------------------------------------
 #p b3lyp 6-31g* opt freq=noraman scrf=(pcm,solvent=tetrahydrofuran)
 -------------------------------------------------------------------

 -----
 title
 -----
 Symbolic Z-matrix:
 Charge =  1 Multiplicity = 1

 SCF Done:  E(RB3LYP) =  -768.327507270     A.U. after   13 cycles
 Optimization completed.
    -- Stationary point found.
 Normal termination of Gaussian 16 at Fri May 24 08:35:05 2019.

 --------------------------------------------------------------------
 #P Geom=AllCheck Guess=TCheck SCRF=Check GenChk RB3LYP/6-31G(d) Freq
 --------------------------------------------------------------------

 Structure from the checkpoint file:  "/scratch/Gau-28268.chk"
 -----
 title
 -----
 Charge =  1 Multiplicity = 1

                         Standard orientation:
 ---------------------------------------------------------------------
 Center     Atomic      Atomic             Coordinates (Angstroms)
 Number     Number       Type             X           Y           Z
 ---------------------------------------------------------------------
      1          6           0       -1.122906    0.637649   -0.501812
      2          6           0       -1.722753   -0.629935    0.153449
      3          6           0       -0.884748   -1.848381   -0.074181
      4          6           0        1.027323   -0.609502   -0.946414
      5          6           0        0.407359    0.642643   -0.298397
      6          1           0       -1.307461   -2.836229    0.113937
      7          1           0       -1.789431   -0.491880    1.245373
      8          1           0       -1.324034    0.570250   -1.576451
      9          1           0        0.894209   -0.584136   -2.029826
     10          1           0        0.665053    0.651338    0.766494
     11          8           0        0.275967   -1.868908   -0.549955
     12          8           0       -2.970739   -0.941498   -0.422985
     13          8           0       -1.789673    1.803823   -0.094769
     14          8           0        0.963964    1.746120   -0.977409
     15          6           0        2.475579   -0.887316   -0.603053
     16          1           0        3.087571   -0.118555   -1.099079
     17          1           0        2.765722   -1.862465   -1.021871
     18          8           0        2.618554   -0.857913    0.797203
     19          6           0       -4.019996   -1.258476    0.503241
     20          1           0       -4.192721   -0.418908    1.186472
     21          1           0       -4.909640   -1.431966   -0.102890
     22          1           0       -3.791413   -2.162562    1.079836
     23          6           0       -1.605181    2.258560    1.244900
     24          1           0       -0.577846    2.589580    1.431055
     25          1           0       -2.276182    3.111352    1.359304
     26          1           0       -1.876442    1.501059    1.992289
     27          6           0        1.918576    2.515325   -0.237854
     28          1           0        2.319207    3.250264   -0.937873
     29          1           0        1.443642    3.038358    0.600627
     30          1           0        2.734011    1.890869    0.143947
     31          6           0        3.943888   -1.160211    1.224186
     32          1           0        4.241447   -2.168927    0.906496
     33          1           0        4.665273   -0.433232    0.826645
     34          1           0        3.941607   -1.109358    2.314452
 ---------------------------------------------------------------------

 SCF Done:  E(RB3LYP) =  -768.327507270     A.U. after    1 cycles

 The electronic state is 1-A.
 Alpha  occ. eigenvalues --  -19.32846 -19.21483 -19.19389 -19.19021 -19.18796
 Alpha  occ. eigenvalues --  -10.39542 -10.32031 -10.31709 -10.29427 -10.29234
 Alpha  occ. eigenvalues --  -10.27893 -10.26198 -10.25338 -10.25245 -10.24904
 Alpha  occ. eigenvalues --   -1.21425  -1.09807  -1.08197  -1.07031  -1.06308
 Alpha  occ. eigenvalues --   -0.87204  -0.85688  -0.77642  -0.74957  -0.73797
 Alpha  occ. eigenvalues --   -0.71444  -0.69412  -0.67711  -0.65692  -0.62170
 Alpha  occ. eigenvalues --   -0.60545  -0.58618  -0.55916  -0.55273  -0.53421
 Alpha  occ. eigenvalues --   -0.52700  -0.51524  -0.50939  -0.50210  -0.49344
 Alpha  occ. eigenvalues --   -0.48414  -0.47945  -0.46622  -0.46149  -0.45281
 Alpha  occ. eigenvalues --   -0.43689  -0.43055  -0.42519  -0.42054  -0.40667
 Alpha  occ. eigenvalues --   -0.40121  -0.37677  -0.36672  -0.35466  -0.34300
 Alpha  occ. eigenvalues --   -0.31972  -0.30165  -0.29424  -0.29119
 Alpha virt. eigenvalues --   -0.15010   0.00071   0.04395   0.04915   0.05594
 Alpha virt. eigenvalues --    0.07208   0.07826   0.09160   0.09369   0.09999
 Alpha virt. eigenvalues --    0.10688   0.10992   0.12145   0.12701   0.13325

 Mulliken charges:
               1
     1  C    0.143272
     2  C    0.020891
     3  C    0.307094
     4  C    0.056805
     5  C    0.064524
     6  H    0.274964
     7  H    0.227891
     8  H    0.192582
     9  H    0.241511
    10  H    0.191884
    11  O   -0.309871
    12  O   -0.462956
    13  O   -0.475355
    14  O   -0.483489
    15  C   -0.036926
    16  H    0.183262
    17  H    0.181579
    18  O   -0.484005
    19  C   -0.233752
    20  H    0.181857
    21  H    0.198768
    22  H    0.172986
    23  C   -0.240912
    24  H    0.165239
    25  H    0.191358
    26  H    0.155968
    27  C   -0.233723
    28  H    0.186736
    29  H    0.169269
    30  H    0.167272
    31  C   -0.212081
    32  H    0.158808
    33  H    0.159520
    34  H    0.179031
 Sum of Mulliken charges =   1.00000

 Dipole moment (field-independent basis, Debye):
    X=              0.3105    Y=             -4.9075    Z=              2.3315  Tot=              5.4421
 Quadrupole moment (field-independent basis, Debye-Ang):
   XX=            -55.3127   YY=            -71.4850   ZZ=            -81.8107
   XY=              8.1193   XZ=             -8.6013   YZ=              4.4650

  Exact polarizability: 173.596   3.957 146.407  -8.157   2.662 121.065
 Approx polarizability: 181.896  -1.024 163.721  -6.452   0.360 150.268

                      1                      2                      3
                      A                      A                      A
 Frequencies --     32.8373                49.5996                62.7140
 Red. masses --      4.0596                 3.9721                 2.8246
 Frc consts  --      0.0026                 0.0058                 0.0065
 IR Inten    --      4.1162                 0.7287                 2.5932

                      4                      5                      6
                      A                      A                      A
 Frequencies --     80.9349                89.3546               110.6845
 Red. masses --      3.0741                 2.4509                 1.8206
 Frc consts  --      0.0119                 0.0115                 0.0131
 IR Inten    --      3.7473                 5.0842                 8.8077

                      7                      8                      9
                      A                      A                      A
 Frequencies --    129.0920               131.0203               156.7765
 Red. masses --      2.6379                 1.4830                 1.7912
 Frc consts  --      0.0259                 0.0150                 0.0259
 IR Inten    --      4.1813                 2.9851                 0.5119

                     10                     11                     12
                      A                      A                      A
 Frequencies --    176.6710               185.0929               199.8282
 Red. masses --      2.1219                 1.9878                 1.4282
 Frc consts  --      0.0390                 0.0401                 0.0336
 IR Inten    --      0.6214                 2.5495                 0.8593

                     13                     14                     15
                      A                      A                      A
 Frequencies --    229.8973               254.2877               256.0418
 Red. masses --      1.7391                 2.9766                 2.8424
 Frc consts  --      0.0542                 0.1134                 0.1098
 IR Inten    --      6.9022                 7.7672                11.0650

                     16                     17                     18
                      A                      A                      A
 Frequencies --    281.8978               290.5753               295.5979
 Red. masses --      3.5882                 2.6894                 3.5965
 Frc consts  --      0.1680                 0.1338                 0.1852
 IR Inten    --      2.4200                 0.8909                 8.9792

                     19                     20                     21
                      A                      A                      A
 Frequencies --    311.0367               358.5271               426.2098
 Red. masses --      4.8093                 3.4583                 3.6583
 Frc consts  --      0.2741                 0.2619                 0.3915
 IR Inten    --      5.8656                 9.7428                 4.6845

                     22                     23                     24
                      A                      A                      A
 Frequencies --    437.3777               438.9169               514.8849
 Red. masses --      3.9838                 4.1703                 3.5944
 Frc consts  --      0.4490                 0.4734                 0.5614
 IR Inten    --     10.2104                 6.3661                20.4959

                     25                     26                     27
                      A                      A                      A
 Frequencies --    562.3785               582.7994               664.1145
 Red. masses --      3.0784                 3.8448                 3.8421
 Frc consts  --      0.5736                 0.7694                 0.9984
 IR Inten    --     12.2071                27.4021                26.9656

                     28                     29                     30
                      A                      A                      A
 Frequencies --    718.2228               752.5725               858.5820
 Red. masses --      4.5359                 4.6438                 1.9428
 Frc consts  --      1.3786                 1.5496                 0.8438
 IR Inten    --     74.8465                52.7769                 1.8436

                     31                     32                     33
                      A                      A                      A
 Frequencies --    914.9229               935.4981               958.0713
 Red. masses --      3.0123                 4.8370                 3.9425
 Frc consts  --      1.4856                 2.4941                 2.1322
 IR Inten    --     14.9622                15.6505                31.8940

                     34                     35                     36
                      A                      A                      A
 Frequencies --    989.0381              1029.1569              1036.8355
 Red. masses --      3.8262                 2.6828                 3.1604
 Frc consts  --      2.2052                 1.6742                 2.0017
 IR Inten    --     38.8518                17.0271                53.5830

                     37                     38                     39
                      A                      A                      A
 Frequencies --   1056.6148              1092.4125              1102.6135
 Red. masses --      2.5172                 3.3898                 3.0879
 Frc consts  --      1.6558                 2.3834                 2.2119
 IR Inten    --      9.0299               186.9863                37.0002

                     40                     41                     42
                      A                      A                      A
 Frequencies --   1127.0137              1142.2505              1158.1435
 Red. masses --      3.2718                 3.0672                 4.0334
 Frc consts  --      2.4485                 2.3578                 3.1875
 IR Inten    --     85.9560               219.7021                30.9343

                     43                     44                     45
                      A                      A                      A
 Frequencies --   1164.9368              1170.3860              1180.5432
 Red. masses --      2.5131                 2.3893                 1.2845
 Frc consts  --      2.0094                 1.9283                 1.0548
 IR Inten    --     87.3093               110.6430                 2.9032

                     46                     47                     48
                      A                      A                      A
 Frequencies --   1186.0267              1189.1253              1193.6121
 Red. masses --      1.3885                 1.2952                 1.3173
 Frc consts  --      1.1508                 1.0791                 1.1057
 IR Inten    --     17.0336                18.1559                 1.6656

                     49                     50                     51
                      A                      A                      A
 Frequencies --   1210.3666              1228.2934              1232.8604
 Red. masses --      1.3952                 1.6613                 1.8957
 Frc consts  --      1.2042                 1.4767                 1.6976
 IR Inten    --     26.3233                54.4294                52.6682

                     52                     53                     54
                      A                      A                      A
 Frequencies --   1237.9541              1258.1607              1286.7294
 Red. masses --      1.7079                 1.4321                 1.2436
 Frc consts  --      1.5422                 1.3357                 1.2131
 IR Inten    --     45.7839                12.0269                32.3210

                     55                     56                     57
                      A                      A                      A
 Frequencies --   1299.9198              1327.8153              1331.2276
 Red. masses --      1.3235                 1.3787                 1.2774
 Frc consts  --      1.3176                 1.4321                 1.3337
 IR Inten    --     73.5392                18.4203                41.4723

                     58                     59                     60
                      A                      A                      A
 Frequencies --   1342.9548              1404.5243              1416.1083
 Red. masses --      1.2819                 1.5106                 1.2961
 Frc consts  --      1.3622                 1.7558                 1.5314
 IR Inten    --      2.3623                12.6113                 3.2991

                     61                     62                     63
                      A                      A                      A
 Frequencies --   1431.9145              1439.1133              1446.3664
 Red. masses --      1.3238                 1.3788                 1.2202
 Frc consts  --      1.5992                 1.6825                 1.5040
 IR Inten    --     26.1798                44.3518                21.8813

                     64                     65                     66
                      A                      A                      A
 Frequencies --   1498.0855              1500.2472              1502.3319
 Red. masses --      1.1253                 1.1359                 1.1378
 Frc consts  --      1.4879                 1.5063                 1.5131
 IR Inten    --     12.2312                 3.6552                 0.1887

                     67                     68                     69
                      A                      A                      A
 Frequencies --   1504.5162              1510.4863              1511.2544
 Red. masses --      1.1157                 1.0537                 1.0465
 Frc consts  --      1.4880                 1.4164                 1.4082
 IR Inten    --      1.5692                13.0072                10.5065

                     70                     71                     72
                      A                      A                      A
 Frequencies --   1517.8302              1520.6968              1521.8487
 Red. masses --      1.0688                 1.0572                 1.0485
 Frc consts  --      1.4507                 1.4405                 1.4307
 IR Inten    --     22.9810                 8.7789                12.1661

                     73                     74                     75
                      A                      A                      A
 Frequencies --   1522.3746              1530.4703              1538.1219
 Red. masses --      1.0645                 1.0614                 1.0724
 Frc consts  --      1.4535                 1.4648                 1.4949
 IR Inten    --     11.7100                 8.3289                 8.0394

                     76                     77                     78
                      A                      A                      A
 Frequencies --   1543.1715              1641.1902              3005.3094
 Red. masses --      1.0919                 6.7635                 1.0799
 Frc consts  --      1.5320                10.7334                 5.7465
 IR Inten    --     13.2911               378.9836                 9.5484

                     79                     80                     81
                      A                      A                      A
 Frequencies --   3016.2449              3025.3320              3036.6175
 Red. masses --      1.0529                 1.0378                 1.0397
 Frc consts  --      5.6438                 5.5966                 5.6486
 IR Inten    --     34.0717                63.1272                35.0086

                     82                     83                     84
                      A                      A                      A
 Frequencies --   3045.9916              3048.4879              3050.7454
 Red. masses --      1.0336                 1.0331                 1.1065
 Frc consts  --      5.6500                 5.6567                 6.0678
 IR Inten    --     49.6153                50.4828                50.5236

                     85                     86                     87
                      A                      A                      A
 Frequencies --   3081.3257              3085.0436              3096.8588
 Red. masses --      1.1069                 1.0855                 1.0862
 Frc consts  --      6.1919                 6.0868                 6.1376
 IR Inten    --     50.2771                 6.3952                29.3267

                     88                     89                     90
                      A                      A                      A
 Frequencies --   3105.5516              3113.3214              3114.3295
 Red. masses --      1.0965                 1.1059                 1.1073
 Frc consts  --      6.2309                 6.3157                 6.3279
 IR Inten    --     67.3815                55.2831                29.2561

                     91                     92                     93
                      A                      A                      A
 Frequencies --   3147.2909              3161.3531              3165.9099
 Red. masses --      1.0874                 1.1002                 1.1011
 Frc consts  --      6.3461                 6.4786                 6.5023
 IR Inten    --      1.2898                25.4841                19.7595

                     94                     95                     96
                      A                      A                      A
 Frequencies --   3168.7404              3181.0010              3200.2848
 Red. masses --      1.1029                 1.1023                 1.0937
 Frc consts  --      6.5244                 6.5719                 6.5995
 IR Inten    --     22.2480                16.4412                 0.4869

 - Thermochemistry -
 -------------------
 Temperature   298.150 Kelvin.  Pressure   1.00000 Atm.
 Atom     1 has atomic number  6 and mass  12.00000

 Molecular mass:   219.12325 amu.
 Principal axes and moments of inertia in atomic units:
                           1         2         3
     Eigenvalues --  2197.691164308.252735630.28839
           X            0.99992   0.00918  -0.00815
           Y           -0.00908   0.99989   0.01160
           Z            0.00826  -0.01153   0.99990
 This molecule is an asymmetric top.
 Rotational symmetry number  1.
 Warning -- assumption of classical behavior for rotation
           may cause significant error
 Rotational temperatures (Kelvin)      0.03941     0.02010     0.01538
 Rotational constants (GHZ):           0.82120     0.41890     0.32054
 Zero-point vibrational energy     773818.8 (Joules/Mol)
                                  184.94713 (Kcal/Mol)
 Warning -- explicit consideration of  26 degrees of freedom as
           vibrations may cause significant error
 Vibrational temperatures:     47.25    71.36    90.23   116.45   128.56
          (Kelvin)            159.25   185.73   188.51   225.57   254.19
                              266.31   287.51   330.77   365.86   368.39
                              405.59   418.07   425.30   447.51   515.84
                              613.22   629.29   631.50   740.80   809.14
                              838.52   955.51  1033.36  1082.78  1235.31
                             1316.37  1345.97  1378.45  1423.01  1480.73
                             1491.78  1520.23  1571.74  1586.41  1621.52
                             1643.44  1666.31  1676.08  1683.92  1698.54
                             1706.43  1710.89  1717.34  1741.45  1767.24
                             1773.81  1781.14  1810.21  1851.32  1870.29
                             1910.43  1915.34  1932.21  2020.80  2037.46
                             2060.21  2070.56  2081.00  2155.41  2158.52
                             2161.52  2164.66  2173.25  2174.36  2183.82
                             2187.94  2189.60  2190.36  2202.01  2213.01
                             2220.28  2361.31  4323.97  4339.70  4352.78
                             4369.02  4382.50  4386.09  4389.34  4433.34
                             4438.69  4455.69  4468.20  4479.38  4480.83
                             4528.25  4548.48  4555.04  4559.11  4576.75
                             4604.50

 Zero-point correction=                           0.294732 (Hartree/Particle)
 Thermal correction to Energy=                    0.312093
 Thermal correction to Enthalpy=                  0.313037
 Thermal correction to Gibbs Free Energy=         0.249136
 Sum of electronic and zero-point Energies=           -768.032775
 Sum of electronic and thermal Energies=              -768.015414
 Sum of electronic and thermal Enthalpies=            -768.014470
 Sum of electronic and thermal Free Energies=         -768.078371

                     E (Thermal)             CV                S
                      KCal/Mol        Cal/Mol-Kelvin    Cal/Mol-Kelvin
 Total                  195.841             61.662            134.492
 Electronic               0.000              0.000              0.000
 Translational            0.889              2.981             42.056
 Rotational               0.889              2.981             32.344
 Vibrational            194.064             55.700             60.091
 Vibration     1          0.594              1.983              5.650
 Vibration     2          0.595              1.978              4.833
 Vibration     3          0.597              1.972              4.370
 Vibration     4          0.600              1.962              3.868
 Vibration     5          0.602              1.957              3.674
 Vibration     6          0.607              1.941              3.257
 Vibration     7          0.612              1.924              2.960
 Vibration     8          0.612              1.922              2.931
 Vibration     9          0.620              1.895              2.588
 Vibration    10          0.628              1.871              2.363
 Vibration    11          0.631              1.860              2.276
 Vibration    12          0.638              1.840              2.135
 Vibration    13          0.652              1.795              1.880
 Vibration    14          0.665              1.756              1.701
 Vibration    15          0.666              1.753              1.689
 Vibration    16          0.681              1.707              1.522
 Vibration    17          0.687              1.691              1.471
 Vibration    18          0.690              1.682              1.442
 Vibration    19          0.700              1.653              1.357
 Vibration    20          0.733              1.558              1.128
 Vibration    21          0.788              1.413              0.871
 Vibration    22          0.798              1.389              0.835
 Vibration    23          0.799              1.385              0.830
 Vibration    24          0.870              1.217              0.622
 Vibration    25          0.918              1.113              0.519
 Vibration    26          0.940              1.069              0.480

 Optimization completed.
    -- Stationary point found.
 Normal termination of Gaussian 16 at Fri May 24 08:54:04 2019.
