 Gaussian 16, Revision A.03,
 Gaussian 16:  ES64L-G16RevA.03 25-Dec-2016

 -------------------------------------------------------------------
 #p b3lyp 6-31g* opt freq=noraman scrf=(pcm,solvent=tetrahydrofuran)
 -------------------------------------------------------------------

 -----
 title
 -----
 Symbolic Z-matrix:
 Charge =  1 Multiplicity = 1

 SCF Done:  E(RB3LYP) =  -768.323766190     A.U. after   14 cycles
 Optimization completed.
    -- Stationary point found.
 Normal termination of Gaussian 16 at Fri May 24 08:38:01 2019.

 --------------------------------------------------------------------
 #P Geom=AllCheck Guess=TCheck SCRF=Check GenChk RB3LYP/6-31G(d) Freq
 --------------------------------------------------------------------

 Structure from the checkpoint file:  "/scratch/Gau-10164.chk"
 -----
 title
 -----
 Charge =  1 Multiplicity = 1

                         Standard orientation:
 ---------------------------------------------------------------------
 Center     Atomic      Atomic             Coordinates (Angstroms)
 Number     Number       Type             X           Y           Z
 ---------------------------------------------------------------------
      1          6           0        1.170197    0.318410   -0.173619
      2          6           0        1.245858   -1.194237   -0.485126
      3          6           0        0.275534   -2.008538    0.307440
      4          6           0       -1.158024   -0.122777    0.882079
      5          6           0       -0.321901    0.724720   -0.101522
      6          1           0        0.439743   -3.082857    0.413502
      7          1           0        0.876914   -1.304080   -1.522744
      8          1           0        1.681263    0.528577    0.776024
      9          1           0       -0.965540    0.135280    1.924858
     10          1           0       -0.738304    0.581158   -1.102462
     11          8           0       -0.767900   -1.584678    0.855599
     12          8           0        2.505791   -1.801166   -0.478374
     13          8           0        1.823644    0.940771   -1.250611
     14          8           0       -0.538993    2.097310    0.166463
     15          6           0       -2.649191   -0.109888    0.605846
     16          1           0       -2.993431    0.928320    0.732201
     17          1           0       -3.168449   -0.733696    1.348567
     18          8           0       -2.852336   -0.582024   -0.703461
     19          6           0        3.251552   -1.699252    0.743354
     20          1           0        2.653083   -1.995459    1.617276
     21          1           0        4.087273   -2.391276    0.635600
     22          1           0        3.639951   -0.686864    0.894595
     23          6           0        2.409634    2.218610   -0.992698
     24          1           0        3.064926    2.182792   -0.112214
     25          1           0        3.011061    2.454787   -1.872590
     26          1           0        1.646945    2.990556   -0.854727
     27          6           0       -0.131486    2.626647    1.434420
     28          1           0       -0.252615    3.707300    1.346991
     29          1           0       -0.763988    2.270799    2.256182
     30          1           0        0.916653    2.407637    1.664382
     31          6           0       -4.221925   -0.563700   -1.093279
     32          1           0       -4.828654   -1.205527   -0.439772
     33          1           0       -4.627637    0.456974   -1.069284
     34          1           0       -4.262333   -0.946109   -2.114697
 ---------------------------------------------------------------------

 SCF Done:  E(RB3LYP) =  -768.323766190     A.U. after    1 cycles

 The electronic state is 1-A.
 Alpha  occ. eigenvalues --  -19.33412 -19.20843 -19.19842 -19.18899 -19.18645
 Alpha  occ. eigenvalues --  -10.39945 -10.32363 -10.31965 -10.29670 -10.29426
 Alpha  occ. eigenvalues --  -10.27893 -10.26328 -10.25732 -10.24788 -10.24772
 Alpha  occ. eigenvalues --   -1.22030  -1.09702  -1.08171  -1.06958  -1.06317
 Alpha  occ. eigenvalues --   -0.87425  -0.85888  -0.77683  -0.75510  -0.73801
 Alpha  occ. eigenvalues --   -0.72205  -0.68989  -0.67918  -0.65815  -0.62395
 Alpha  occ. eigenvalues --   -0.60590  -0.58515  -0.56174  -0.55315  -0.53799
 Alpha  occ. eigenvalues --   -0.52322  -0.51884  -0.50989  -0.50323  -0.49221
 Alpha  occ. eigenvalues --   -0.48578  -0.47899  -0.46531  -0.45946  -0.45390
 Alpha  occ. eigenvalues --   -0.44541  -0.42885  -0.42712  -0.41911  -0.41109
 Alpha  occ. eigenvalues --   -0.40182  -0.37196  -0.35880  -0.35227  -0.34806
 Alpha  occ. eigenvalues --   -0.31984  -0.31567  -0.29148  -0.28245
 Alpha virt. eigenvalues --   -0.15445  -0.00379   0.04222   0.05153   0.06082
 Alpha virt. eigenvalues --    0.07093   0.07947   0.08867   0.09258   0.10747
 Alpha virt. eigenvalues --    0.11290   0.11434   0.12100   0.12646   0.12990

 Mulliken charges:
               1
     1  C    0.098010
     2  C    0.039321
     3  C    0.281814
     4  C    0.035424
     5  C    0.105039
     6  H    0.283133
     7  H    0.263267
     8  H    0.171016
     9  H    0.235291
    10  H    0.203805
    11  O   -0.299103
    12  O   -0.465381
    13  O   -0.481798
    14  O   -0.482783
    15  C   -0.023264
    16  H    0.185003
    17  H    0.177672
    18  O   -0.483460
    19  C   -0.242040
    20  H    0.159361
    21  H    0.201274
    22  H    0.181682
    23  C   -0.226079
    24  H    0.157631
    25  H    0.182635
    26  H    0.173500
    27  C   -0.244464
    28  H    0.195583
    29  H    0.167308
    30  H    0.164689
    31  C   -0.211296
    32  H    0.157427
    33  H    0.160258
    34  H    0.179523
 Sum of Mulliken charges =   1.00000

 Dipole moment (field-independent basis, Debye):
    X=             -0.4790    Y=             -2.7425    Z=              5.2896  Tot=              5.9775
 Quadrupole moment (field-independent basis, Debye-Ang):
   XX=            -62.0904   YY=            -69.2248   ZZ=            -81.1158
   XY=              1.5664   XZ=              4.7406   YZ=              0.4863

  Exact polarizability: 157.984  -1.898 148.879  -4.668   1.560 124.421
 Approx polarizability: 166.517  -4.124 165.923  -8.690   2.161 154.659

                      1                      2                      3
                      A                      A                      A
 Frequencies --     36.0896                48.6246                73.0352
 Red. masses --      4.2790                 3.6415                 3.2635
 Frc consts  --      0.0033                 0.0051                 0.0103
 IR Inten    --      0.2324                 0.3214                 1.9580

                      4                      5                      6
                      A                      A                      A
 Frequencies --    102.9546               108.9992               121.4361
 Red. masses --      2.7294                 2.0349                 3.1651
 Frc consts  --      0.0170                 0.0142                 0.0275
 IR Inten    --      2.6183                10.5499                 5.0851

                      7                      8                      9
                      A                      A                      A
 Frequencies --    134.1433               147.5673               162.7464
 Red. masses --      1.6363                 2.4393                 2.0866
 Frc consts  --      0.0173                 0.0313                 0.0326
 IR Inten    --      1.9899                 1.2443                 2.9785

                     10                     11                     12
                      A                      A                      A
 Frequencies --    183.2010               194.0882               220.8536
 Red. masses --      1.6120                 1.6405                 1.5446
 Frc consts  --      0.0319                 0.0364                 0.0444
 IR Inten    --      0.4215                 1.6238                 5.6271

                     13                     14                     15
                      A                      A                      A
 Frequencies --    225.2888               244.8117               264.5743
 Red. masses --      1.6375                 2.2940                 2.7621
 Frc consts  --      0.0490                 0.0810                 0.1139
 IR Inten    --      9.0174                 0.4608                 2.4355

                     16                     17                     18
                      A                      A                      A
 Frequencies --    277.3691               294.1090               311.3931
 Red. masses --      4.2573                 2.6863                 4.0182
 Frc consts  --      0.1930                 0.1369                 0.2296
 IR Inten    --     21.1305                 6.1007                 0.9628

                     19                     20                     21
                      A                      A                      A
 Frequencies --    337.4396               350.1461               424.9258
 Red. masses --      3.3989                 3.9709                 6.0474
 Frc consts  --      0.2280                 0.2868                 0.6433
 IR Inten    --      4.3493                 9.3860                 6.8208

                     22                     23                     24
                      A                      A                      A
 Frequencies --    453.9411               481.7542               506.4824
 Red. masses --      4.4122                 4.1066                 3.5083
 Frc consts  --      0.5357                 0.5615                 0.5302
 IR Inten    --      4.3936                12.2634                20.7623

                     25                     26                     27
                      A                      A                      A
 Frequencies --    541.6529               619.6141               648.6255
 Red. masses --      4.2504                 2.9893                 3.6248
 Frc consts  --      0.7347                 0.6762                 0.8985
 IR Inten    --     12.2924                22.8388                13.5688

                     28                     29                     30
                      A                      A                      A
 Frequencies --    716.2744               761.7087               868.7554
 Red. masses --      5.6407                 4.0976                 2.4335
 Frc consts  --      1.7051                 1.4007                 1.0821
 IR Inten    --     17.8570                76.3931                29.0040

                     31                     32                     33
                      A                      A                      A
 Frequencies --    911.1067               923.6170               957.5086
 Red. masses --      2.9140                 3.3955                 4.4118
 Frc consts  --      1.4252                 1.7066                 2.3832
 IR Inten    --     14.6935                 3.7620                90.7347

                     34                     35                     36
                      A                      A                      A
 Frequencies --    979.4920              1009.1832              1045.2703
 Red. masses --      3.8933                 2.5809                 3.8153
 Frc consts  --      2.2008                 1.5487                 2.4560
 IR Inten    --     29.0663                 9.3562                87.7950

                     37                     38                     39
                      A                      A                      A
 Frequencies --   1064.2329              1075.9747              1118.1518
 Red. masses --      2.2975                 3.5618                 2.5360
 Frc consts  --      1.5331                 2.4295                 1.8681
 IR Inten    --      8.8637                69.9250                 6.6745

                     40                     41                     42
                      A                      A                      A
 Frequencies --   1132.5251              1142.4309              1162.2312
 Red. masses --      3.0670                 2.9204                 2.8223
 Frc consts  --      2.3177                 2.2457                 2.2462
 IR Inten    --     27.6032                88.7691               301.5282

                     43                     44                     45
                      A                      A                      A
 Frequencies --   1164.1625              1173.9374              1182.3061
 Red. masses --      3.8356                 1.7747                 1.5388
 Frc consts  --      3.0628                 1.4410                 1.2673
 IR Inten    --    165.9833                 3.3985                21.0149

                     46                     47                     48
                      A                      A                      A
 Frequencies --   1186.7476              1192.2790              1193.3254
 Red. masses --      1.3847                 1.5979                 1.2938
 Frc consts  --      1.1490                 1.3383                 1.0855
 IR Inten    --     21.4955                26.1377                 3.2806

                     49                     50                     51
                      A                      A                      A
 Frequencies --   1226.2015              1228.9080              1230.3831
 Red. masses --      1.5589                 1.6422                 1.7025
 Frc consts  --      1.3810                 1.4612                 1.5185
 IR Inten    --     28.1094                73.9060                90.6189

                     52                     53                     54
                      A                      A                      A
 Frequencies --   1239.6863              1266.6254              1286.6803
 Red. masses --      1.7711                 1.4167                 1.2645
 Frc consts  --      1.6037                 1.3391                 1.2334
 IR Inten    --      0.7554                17.4844                28.2016

                     55                     56                     57
                      A                      A                      A
 Frequencies --   1307.6292              1339.2279              1352.0961
 Red. masses --      1.3035                 1.2114                 1.3383
 Frc consts  --      1.3132                 1.2801                 1.4415
 IR Inten    --     12.1048                45.4242                 1.3963

                     58                     59                     60
                      A                      A                      A
 Frequencies --   1366.5632              1409.0803              1416.1898
 Red. masses --      1.2150                 1.3501                 1.5084
 Frc consts  --      1.3368                 1.5794                 1.7824
 IR Inten    --      8.1752                17.3521                16.8432

                     61                     62                     63
                      A                      A                      A
 Frequencies --   1426.4738              1435.9811              1474.3942
 Red. masses --      1.2356                 1.3552                 1.1585
 Frc consts  --      1.4813                 1.6464                 1.4838
 IR Inten    --     23.4338                33.0648                13.3743

                     64                     65                     66
                      A                      A                      A
 Frequencies --   1499.0344              1500.8317              1501.9146
 Red. masses --      1.1315                 1.1312                 1.0964
 Frc consts  --      1.4981                 1.5012                 1.4572
 IR Inten    --      3.9719                 7.3764                 3.8018

                     67                     68                     69
                      A                      A                      A
 Frequencies --   1506.0319              1509.8488              1511.9349
 Red. masses --      1.0975                 1.0795                 1.0462
 Frc consts  --      1.4667                 1.4499                 1.4090
 IR Inten    --      0.5694                10.2446                 8.2349

                     70                     71                     72
                      A                      A                      A
 Frequencies --   1513.4592              1520.9115              1528.9860
 Red. masses --      1.0936                 1.0654                 1.0535
 Frc consts  --      1.4758                 1.4521                 1.4510
 IR Inten    --     11.6365                18.6849                30.3015

                     73                     74                     75
                      A                      A                      A
 Frequencies --   1531.4805              1534.0538              1539.4185
 Red. masses --      1.0737                 1.0463                 1.0987
 Frc consts  --      1.4838                 1.4508                 1.5340
 IR Inten    --      7.1477                19.5372                 4.4393

                     76                     77                     78
                      A                      A                      A
 Frequencies --   1543.5551              1659.9401              2979.9983
 Red. masses --      1.0572                 7.3877                 1.0776
 Frc consts  --      1.4841                11.9935                 5.6384
 IR Inten    --      7.3687               231.4669                30.2850

                     79                     80                     81
                      A                      A                      A
 Frequencies --   3017.1123              3025.1655              3028.2051
 Red. masses --      1.0512                 1.0389                 1.0444
 Frc consts  --      5.6377                 5.6017                 5.6429
 IR Inten    --     36.7503                68.9301                22.6978

                     82                     83                     84
                      A                      A                      A
 Frequencies --   3036.0681              3040.4201              3051.0790
 Red. masses --      1.0428                 1.0746                 1.0430
 Frc consts  --      5.6636                 5.8528                 5.7204
 IR Inten    --     42.2223                22.3929                59.8054

                     85                     86                     87
                      A                      A                      A
 Frequencies --   3054.8165              3080.7839              3111.2300
 Red. masses --      1.1028                 1.1069                 1.0959
 Frc consts  --      6.0635                 6.1900                 6.2503
 IR Inten    --     50.6736                47.8843                40.9093

                     88                     89                     90
                      A                      A                      A
 Frequencies --   3114.0620              3115.3481              3118.9007
 Red. masses --      1.0885                 1.1013                 1.0967
 Frc consts  --      6.2190                 6.2975                 6.2852
 IR Inten    --     11.9823                55.6354                42.8984

                     91                     92                     93
                      A                      A                      A
 Frequencies --   3154.1613              3162.2112              3162.8149
 Red. masses --      1.0860                 1.1000                 1.1045
 Frc consts  --      6.3660                 6.4808                 6.5096
 IR Inten    --      1.1740                24.1799                25.1578

                     94                     95                     96
                      A                      A                      A
 Frequencies --   3169.6675              3177.8739              3196.6499
 Red. masses --      1.1017                 1.1014                 1.0940
 Frc consts  --      6.5212                 6.5535                 6.5863
 IR Inten    --     17.6819                16.4356                 1.7271

 - Thermochemistry -
 -------------------
 Temperature   298.150 Kelvin.  Pressure   1.00000 Atm.
 Atom     1 has atomic number  6 and mass  12.00000

 Molecular mass:   219.12325 amu.
 Principal axes and moments of inertia in atomic units:
                           1         2         3
     Eigenvalues --  2373.877524115.712285358.79637
           X            0.99984   0.01209   0.01305
           Y           -0.01224   0.99986   0.01152
           Z           -0.01291  -0.01167   0.99985
 This molecule is an asymmetric top.
 Rotational symmetry number  1.
 Warning -- assumption of classical behavior for rotation
           may cause significant error
 Rotational temperatures (Kelvin)      0.03649     0.02104     0.01616
 Rotational constants (GHZ):           0.76025     0.43850     0.33678
 Zero-point vibrational energy     775665.7 (Joules/Mol)
                                  185.38855 (Kcal/Mol)
 Warning -- explicit consideration of  26 degrees of freedom as
           vibrations may cause significant error
 Vibrational temperatures:     51.92    69.96   105.08   148.13   156.83
          (Kelvin)            174.72   193.00   212.32   234.16   263.59
                              279.25   317.76   324.14   352.23   380.66
                              399.07   423.16   448.03   485.50   503.78
                              611.37   653.12   693.14   728.72   779.32
                              891.49   933.23  1030.56  1095.93  1249.95
                             1310.88  1328.88  1377.64  1409.27  1451.99
                             1503.91  1531.19  1548.09  1608.77  1629.45
                             1643.70  1672.19  1674.97  1689.03  1701.07
                             1707.47  1715.42  1716.93  1764.23  1768.12
                             1770.25  1783.63  1822.39  1851.25  1881.39
                             1926.85  1945.36  1966.18  2027.35  2037.58
                             2052.38  2066.06  2121.32  2156.78  2159.36
                             2160.92  2166.84  2172.34  2175.34  2177.53
                             2188.25  2199.87  2203.46  2207.16  2214.88
                             2220.83  2388.28  4287.55  4340.95  4352.54
                             4356.91  4368.22  4374.49  4389.82  4395.20
                             4432.56  4476.37  4480.44  4482.29  4487.40
                             4538.13  4549.72  4550.59  4560.44  4572.25
                             4599.27

 Zero-point correction=                           0.295435 (Hartree/Particle)
 Thermal correction to Energy=                    0.312484
 Thermal correction to Enthalpy=                  0.313429
 Thermal correction to Gibbs Free Energy=         0.250719
 Sum of electronic and zero-point Energies=           -768.028331
 Sum of electronic and thermal Energies=              -768.011282
 Sum of electronic and thermal Enthalpies=            -768.010338
 Sum of electronic and thermal Free Energies=         -768.073048

                     E (Thermal)             CV                S
                      KCal/Mol        Cal/Mol-Kelvin    Cal/Mol-Kelvin
 Total                  196.087             61.312            131.985
 Electronic               0.000              0.000              0.000
 Translational            0.889              2.981             42.056
 Rotational               0.889              2.981             32.326
 Vibrational            194.310             55.350             57.602
 Vibration     1          0.594              1.982              5.463
 Vibration     2          0.595              1.978              4.873
 Vibration     3          0.599              1.967              4.070
 Vibration     4          0.605              1.947              3.398
 Vibration     5          0.606              1.942              3.287
 Vibration     6          0.609              1.931              3.077
 Vibration     7          0.613              1.919              2.886
 Vibration     8          0.617              1.905              2.703
 Vibration     9          0.623              1.888              2.518
 Vibration    10          0.631              1.863              2.296
 Vibration    11          0.635              1.848              2.188
 Vibration    12          0.648              1.809              1.952
 Vibration    13          0.650              1.803              1.916
 Vibration    14          0.660              1.771              1.768
 Vibration    15          0.671              1.738              1.631
 Vibration    16          0.678              1.715              1.550
 Vibration    17          0.689              1.685              1.450
 Vibration    18          0.700              1.652              1.355
 Vibration    19          0.718              1.601              1.224
 Vibration    20          0.727              1.575              1.166
 Vibration    21          0.787              1.416              0.875
 Vibration    22          0.812              1.352              0.784
 Vibration    23          0.838              1.291              0.705
 Vibration    24          0.862              1.236              0.642
 Vibration    25          0.897              1.158              0.562
 Vibration    26          0.980              0.990              0.417

 Optimization completed.
    -- Stationary point found.
 Normal termination of Gaussian 16 at Fri May 24 09:19:17 2019.
