 Gaussian 16, Revision A.03,
 Gaussian 16:  ES64L-G16RevA.03 25-Dec-2016

 -------------------------------------------------------------------
 #p b3lyp 6-31g* opt freq=noraman scrf=(pcm,solvent=tetrahydrofuran)
 -------------------------------------------------------------------

 -----
 title
 -----
 Symbolic Z-matrix:
 Charge =  1 Multiplicity = 1

 SCF Done:  E(RB3LYP) =  -768.318144588     A.U. after   14 cycles
 Optimization completed.
    -- Stationary point found.
 Normal termination of Gaussian 16 at Fri May 24 08:34:40 2019.

 --------------------------------------------------------------------
 #P Geom=AllCheck Guess=TCheck SCRF=Check GenChk RB3LYP/6-31G(d) Freq
 --------------------------------------------------------------------

 Structure from the checkpoint file:  "/scratch/Gau-44095.chk"
 -----
 title
 -----
 Charge =  1 Multiplicity = 1

                         Standard orientation:
 ---------------------------------------------------------------------
 Center     Atomic      Atomic             Coordinates (Angstroms)
 Number     Number       Type             X           Y           Z
 ---------------------------------------------------------------------
      1          6           0       -0.910232    0.672582   -0.542332
      2          6           0       -1.706685   -0.548888    0.027015
      3          6           0       -1.167471   -1.758805   -0.641902
      4          6           0        1.131064   -0.945326   -0.539708
      5          6           0        0.601556    0.482685   -0.251383
      6          1           0       -1.825671   -2.548170   -1.008347
      7          1           0       -1.497005   -0.633793    1.109392
      8          1           0       -1.046950    0.690808   -1.628200
      9          1           0        1.722856   -0.920938   -1.454253
     10          1           0        0.779243    0.714329    0.808490
     11          8           0        0.047034   -1.922368   -0.920385
     12          8           0       -3.067693   -0.410601   -0.246514
     13          8           0       -1.415439    1.899621   -0.096220
     14          8           0        1.396165    1.314608   -1.072563
     15          6           0        1.943195   -1.665250    0.569874
     16          1           0        1.834297   -2.742141    0.412008
     17          1           0        1.532940   -1.414289    1.560223
     18          8           0        3.315037   -1.393214    0.484514
     19          6           0       -3.936083   -1.099599    0.664051
     20          1           0       -3.765252   -0.763010    1.693913
     21          1           0       -4.952235   -0.850972    0.357945
     22          1           0       -3.796693   -2.186535    0.610350
     23          6           0       -1.608971    2.083150    1.307328
     24          1           0       -0.694549    1.915047    1.887940
     25          1           0       -1.915056    3.123237    1.426392
     26          1           0       -2.408811    1.435240    1.685765
     27          6           0        1.513657    2.682123   -0.659637
     28          1           0        0.571582    3.222167   -0.781453
     29          1           0        1.842020    2.746332    0.386279
     30          1           0        2.278490    3.119762   -1.303536
     31          6           0        3.732278   -0.131444    1.004830
     32          1           0        3.419425    0.695369    0.356764
     33          1           0        3.343704    0.027040    2.020481
     34          1           0        4.822976   -0.161219    1.040368
 ---------------------------------------------------------------------

 SCF Done:  E(RB3LYP) =  -768.318144588     A.U. after    1 cycles

 The electronic state is 1-A.
 Alpha  occ. eigenvalues --  -19.33188 -19.21298 -19.20087 -19.19431 -19.18692
 Alpha  occ. eigenvalues --  -10.39669 -10.32305 -10.32104 -10.30308 -10.30077
 Alpha  occ. eigenvalues --  -10.28304 -10.26441 -10.25855 -10.24861 -10.24747
 Alpha  occ. eigenvalues --   -1.21871  -1.10383  -1.08460  -1.07026  -1.06669
 Alpha  occ. eigenvalues --   -0.87048  -0.86184  -0.77487  -0.75400  -0.74711
 Alpha  occ. eigenvalues --   -0.71827  -0.69389  -0.68153  -0.65475  -0.62742
 Alpha  occ. eigenvalues --   -0.60599  -0.59472  -0.56060  -0.54484  -0.54150
 Alpha  occ. eigenvalues --   -0.52791  -0.52288  -0.51016  -0.50291  -0.49576
 Alpha  occ. eigenvalues --   -0.48815  -0.48071  -0.46785  -0.46256  -0.45638
 Alpha  occ. eigenvalues --   -0.44482  -0.43458  -0.42250  -0.41729  -0.41154
 Alpha  occ. eigenvalues --   -0.39955  -0.38067  -0.35880  -0.35285  -0.34502
 Alpha  occ. eigenvalues --   -0.32690  -0.32026  -0.29525  -0.28143
 Alpha virt. eigenvalues --   -0.15285  -0.01249   0.03416   0.04210   0.05558
 Alpha virt. eigenvalues --    0.06960   0.07465   0.09495   0.09825   0.10064
 Alpha virt. eigenvalues --    0.10775   0.11256   0.11659   0.12271   0.12298

 Mulliken charges:
               1
     1  C    0.126676
     2  C    0.008236
     3  C    0.289411
     4  C    0.056322
     5  C    0.099379
     6  H    0.280722
     7  H    0.228064
     8  H    0.201143
     9  H    0.251207
    10  H    0.172596
    11  O   -0.308372
    12  O   -0.465898
    13  O   -0.462821
    14  O   -0.492188
    15  C   -0.056530
    16  H    0.197481
    17  H    0.169490
    18  O   -0.457966
    19  C   -0.236520
    20  H    0.175224
    21  H    0.201767
    22  H    0.169946
    23  C   -0.245641
    24  H    0.166171
    25  H    0.197313
    26  H    0.170423
    27  C   -0.226199
    28  H    0.180092
    29  H    0.155981
    30  H    0.182989
    31  C   -0.234754
    32  H    0.167490
    33  H    0.155173
    34  H    0.183592
 Sum of Mulliken charges =   1.00000

 Dipole moment (field-independent basis, Debye):
    X=             -3.5852    Y=             -3.6084    Z=              2.8675  Tot=              5.8392
 Quadrupole moment (field-independent basis, Debye-Ang):
   XX=            -70.1686   YY=            -70.7521   ZZ=            -81.3068
   XY=             15.5712   XZ=             -2.3599   YZ=              5.2810

  Exact polarizability: 172.805   6.699 152.831  -3.890   7.486 118.629
 Approx polarizability: 185.253  -0.035 176.551  -5.258   8.335 146.854

                      1                      2                      3
                      A                      A                      A
 Frequencies --     38.2173                56.6051                81.4686
 Red. masses --      3.7031                 3.1470                 4.0122
 Frc consts  --      0.0032                 0.0059                 0.0157
 IR Inten    --      1.1395                 1.8701                 3.0866

                      4                      5                      6
                      A                      A                      A
 Frequencies --     98.8505               118.7084               129.0804
 Red. masses --      2.0509                 2.9409                 2.3181
 Frc consts  --      0.0118                 0.0244                 0.0228
 IR Inten    --      2.2467                 2.0230                11.0189

                      7                      8                      9
                      A                      A                      A
 Frequencies --    150.7080               161.7826               173.0942
 Red. masses --      2.7889                 2.4526                 1.5612
 Frc consts  --      0.0373                 0.0378                 0.0276
 IR Inten    --      0.4307                 2.8765                 2.9444

                     10                     11                     12
                      A                      A                      A
 Frequencies --    200.2800               208.1778               228.9104
 Red. masses --      1.6747                 1.4900                 1.5434
 Frc consts  --      0.0396                 0.0380                 0.0476
 IR Inten    --      3.3955                 2.6289                 0.9974

                     13                     14                     15
                      A                      A                      A
 Frequencies --    238.5884               242.0108               265.1453
 Red. masses --      1.8422                 1.6349                 4.1669
 Frc consts  --      0.0618                 0.0564                 0.1726
 IR Inten    --      0.1431                 3.3215                 2.9130

                     16                     17                     18
                      A                      A                      A
 Frequencies --    275.3558               302.9827               317.0871
 Red. masses --      3.3808                 4.2114                 4.1142
 Frc consts  --      0.1510                 0.2278                 0.2437
 IR Inten    --      8.7352                 8.6614                 9.4186

                     19                     20                     21
                      A                      A                      A
 Frequencies --    364.1055               366.9981               415.2725
 Red. masses --      3.5517                 4.3775                 4.6760
 Frc consts  --      0.2774                 0.3474                 0.4751
 IR Inten    --      7.6428                13.6101                16.3306

                     22                     23                     24
                      A                      A                      A
 Frequencies --    441.8887               467.1307               493.8768
 Red. masses --      3.0358                 3.5609                 3.5278
 Frc consts  --      0.3493                 0.4578                 0.5070
 IR Inten    --      0.1900                14.0918                37.0484

                     25                     26                     27
                      A                      A                      A
 Frequencies --    534.6130               554.2180               619.3282
 Red. masses --      3.5359                 3.9181                 3.3582
 Frc consts  --      0.5954                 0.7091                 0.7589
 IR Inten    --     31.6098                 9.9796                25.0170

                     28                     29                     30
                      A                      A                      A
 Frequencies --    711.7310               794.0608               851.8545
 Red. masses --      4.6460                 6.5207                 2.2596
 Frc consts  --      1.3866                 2.4224                 0.9661
 IR Inten    --     54.3485                52.3496                16.8089

                     31                     32                     33
                      A                      A                      A
 Frequencies --    932.2151               940.5910               945.6993
 Red. masses --      3.4835                 2.9771                 4.2509
 Frc consts  --      1.7836                 1.5518                 2.2400
 IR Inten    --     12.8504                19.4196                28.2842

                     34                     35                     36
                      A                      A                      A
 Frequencies --    965.3816              1014.4963              1038.4909
 Red. masses --      3.7875                 5.3972                 4.3488
 Frc consts  --      2.0797                 3.2728                 2.7633
 IR Inten    --     85.6311                15.1454                79.0698

                     37                     38                     39
                      A                      A                      A
 Frequencies --   1050.8655              1084.7122              1097.4719
 Red. masses --      2.7417                 2.9758                 2.8517
 Frc consts  --      1.7838                 2.0629                 2.0237
 IR Inten    --     52.4245                35.9182                45.4049

                     40                     41                     42
                      A                      A                      A
 Frequencies --   1115.9941              1136.3741              1164.3441
 Red. masses --      2.8603                 5.2863                 3.2233
 Frc consts  --      2.0988                 4.0220                 2.5746
 IR Inten    --     14.1972               258.6565               152.4553

                     43                     44                     45
                      A                      A                      A
 Frequencies --   1167.3128              1179.4754              1186.5733
 Red. masses --      2.8619                 2.6749                 1.2744
 Frc consts  --      2.2977                 2.1925                 1.0572
 IR Inten    --    181.8749                24.1360                 8.1401

                     46                     47                     48
                      A                      A                      A
 Frequencies --   1187.7669              1190.2131              1191.4852
 Red. masses --      1.3132                 1.3405                 1.5157
 Frc consts  --      1.0915                 1.1188                 1.2678
 IR Inten    --     13.2611                14.1456                 9.3046

                     49                     50                     51
                      A                      A                      A
 Frequencies --   1215.6885              1223.8890              1233.6830
 Red. masses --      1.4239                 1.5710                 1.6820
 Frc consts  --      1.2398                 1.3865                 1.5083
 IR Inten    --     63.8701                16.7233                74.0795

                     52                     53                     54
                      A                      A                      A
 Frequencies --   1237.0499              1250.2992              1281.8667
 Red. masses --      1.7461                 1.5823                 1.3804
 Frc consts  --      1.5744                 1.4573                 1.3364
 IR Inten    --      8.5950                51.5988                19.5548

                     55                     56                     57
                      A                      A                      A
 Frequencies --   1304.1177              1334.5451              1364.2420
 Red. masses --      1.2580                 1.2166                 1.1576
 Frc consts  --      1.2606                 1.2767                 1.2693
 IR Inten    --     22.1944                 6.2576                31.0938

                     58                     59                     60
                      A                      A                      A
 Frequencies --   1371.7928              1403.9753              1420.9493
 Red. masses --      1.3226                 1.2071                 1.3378
 Frc consts  --      1.4665                 1.4019                 1.5915
 IR Inten    --      8.1025                15.6405                24.7457

                     61                     62                     63
                      A                      A                      A
 Frequencies --   1438.6971              1459.2275              1488.9635
 Red. masses --      1.2786                 1.1612                 1.1230
 Frc consts  --      1.5593                 1.4569                 1.4669
 IR Inten    --     52.6595                24.7531                 3.9930

                     64                     65                     66
                      A                      A                      A
 Frequencies --   1496.0242              1498.4678              1500.7472
 Red. masses --      1.1205                 1.1355                 1.1130
 Frc consts  --      1.4776                 1.5022                 1.4769
 IR Inten    --      1.1943                 0.5796                 9.3856

                     67                     68                     69
                      A                      A                      A
 Frequencies --   1501.1896              1508.5842              1512.9228
 Red. masses --      1.1124                 1.0722                 1.0824
 Frc consts  --      1.4770                 1.4377                 1.4597
 IR Inten    --      1.5209                 6.7990                16.7029

                     70                     71                     72
                      A                      A                      A
 Frequencies --   1516.5935              1518.9435              1519.7403
 Red. masses --      1.0691                 1.0550                 1.0964
 Frc consts  --      1.4487                 1.4341                 1.4920
 IR Inten    --      4.8548                11.5576                 1.1550

                     73                     74                     75
                      A                      A                      A
 Frequencies --   1532.2679              1534.0120              1539.4946
 Red. masses --      1.0566                 1.0710                 1.0605
 Frc consts  --      1.4616                 1.4849                 1.4809
 IR Inten    --     14.5529                16.2107                27.9651

                     76                     77                     78
                      A                      A                      A
 Frequencies --   1541.4868              1642.1122              2972.3643
 Red. masses --      1.0548                 5.9630                 1.0785
 Frc consts  --      1.4768                 9.4737                 5.6138
 IR Inten    --      3.3539               239.0970                18.6270

                     79                     80                     81
                      A                      A                      A
 Frequencies --   3022.4701              3031.3558              3034.2197
 Red. masses --      1.0660                 1.0393                 1.0685
 Frc consts  --      5.7376                 5.6269                 5.7957
 IR Inten    --     35.0045                45.1752                 3.3662

                     82                     83                     84
                      A                      A                      A
 Frequencies --   3038.1683              3040.9254              3047.7756
 Red. masses --      1.0345                 1.0423                 1.0455
 Frc consts  --      5.6263                 5.6789                 5.7219
 IR Inten    --     36.9113                44.0084                72.3638

                     85                     86                     87
                      A                      A                      A
 Frequencies --   3101.3222              3104.2344              3107.6661
 Red. masses --      1.1075                 1.1004                 1.1038
 Frc consts  --      6.2762                 6.2473                 6.2808
 IR Inten    --     51.3965                36.5074                49.9168

                     88                     89                     90
                      A                      A                      A
 Frequencies --   3110.7966              3120.6916              3129.2079
 Red. masses --      1.0880                 1.0965                 1.0940
 Frc consts  --      6.2031                 6.2917                 6.3114
 IR Inten    --     18.2699                15.2691                36.6881

                     91                     92                     93
                      A                      A                      A
 Frequencies --   3159.9836              3169.8337              3170.6247
 Red. masses --      1.1016                 1.1064                 1.1006
 Frc consts  --      6.4810                 6.5501                 6.5186
 IR Inten    --     26.9677                19.2138                17.2168

                     94                     95                     96
                      A                      A                      A
 Frequencies --   3171.9800              3182.7406              3202.3005
 Red. masses --      1.0874                 1.1011                 1.0940
 Frc consts  --      6.4464                 6.5718                 6.6098
 IR Inten    --      1.6059                16.3722                 3.1086

 - Thermochemistry -
 -------------------
 Temperature   298.150 Kelvin.  Pressure   1.00000 Atm.
 Atom     1 has atomic number  6 and mass  12.00000

 Molecular mass:   219.12325 amu.
 Principal axes and moments of inertia in atomic units:
                           1         2         3
     Eigenvalues --  2208.477734247.229425554.00816
           X            0.99955   0.02952  -0.00534
           Y           -0.02949   0.99956   0.00440
           Z            0.00546  -0.00424   0.99998
 This molecule is an asymmetric top.
 Rotational symmetry number  1.
 Warning -- assumption of classical behavior for rotation
           may cause significant error
 Rotational temperatures (Kelvin)      0.03922     0.02039     0.01559
 Rotational constants (GHZ):           0.81719     0.42492     0.32494
 Zero-point vibrational energy     776387.3 (Joules/Mol)
                                  185.56103 (Kcal/Mol)
 Warning -- explicit consideration of  27 degrees of freedom as
           vibrations may cause significant error
 Vibrational temperatures:     54.99    81.44   117.22   142.22   170.79
          (Kelvin)            185.72   216.84   232.77   249.04   288.16
                              299.52   329.35   343.28   348.20   381.48
                              396.18   435.92   456.22   523.87   528.03
                              597.48   635.78   672.10   710.58   769.19
                              797.40   891.08  1024.02  1142.48  1225.63
                             1341.25  1353.30  1360.65  1388.97  1459.63
                             1494.16  1511.96  1560.66  1579.02  1605.67
                             1634.99  1675.23  1679.50  1697.00  1707.21
                             1708.93  1712.45  1714.28  1749.10  1760.90
                             1774.99  1779.84  1798.90  1844.32  1876.33
                             1920.11  1962.84  1973.70  2020.01  2044.43
                             2069.96  2099.50  2142.29  2152.45  2155.96
                             2159.24  2159.88  2170.52  2176.76  2182.04
                             2185.42  2186.57  2204.59  2207.10  2214.99
                             2217.86  2362.63  4276.57  4348.66  4361.44
                             4365.57  4371.25  4375.21  4385.07  4462.11
                             4466.30  4471.24  4475.74  4489.98  4502.23
                             4546.51  4560.68  4561.82  4563.77  4579.25
                             4607.40

 Zero-point correction=                           0.295710 (Hartree/Particle)
 Thermal correction to Energy=                    0.312580
 Thermal correction to Enthalpy=                  0.313524
 Thermal correction to Gibbs Free Energy=         0.251643
 Sum of electronic and zero-point Energies=           -768.022434
 Sum of electronic and thermal Energies=              -768.005564
 Sum of electronic and thermal Enthalpies=            -768.004620
 Sum of electronic and thermal Free Energies=         -768.066502

                     E (Thermal)             CV                S
                      KCal/Mol        Cal/Mol-Kelvin    Cal/Mol-Kelvin
 Total                  196.147             61.385            130.241
 Electronic               0.000              0.000              0.000
 Translational            0.889              2.981             42.056
 Rotational               0.889              2.981             32.321
 Vibrational            194.370             55.423             55.863
 Vibration     1          0.594              1.982              5.349
 Vibration     2          0.596              1.975              4.572
 Vibration     3          0.600              1.962              3.855
 Vibration     4          0.604              1.950              3.477
 Vibration     5          0.609              1.934              3.121
 Vibration     6          0.612              1.924              2.960
 Vibration     7          0.618              1.902              2.663
 Vibration     8          0.622              1.889              2.529
 Vibration     9          0.627              1.876              2.402
 Vibration    10          0.638              1.839              2.131
 Vibration    11          0.641              1.828              2.060
 Vibration    12          0.652              1.797              1.887
 Vibration    13          0.657              1.782              1.813
 Vibration    14          0.658              1.776              1.788
 Vibration    15          0.671              1.737              1.628
 Vibration    16          0.677              1.719              1.562
 Vibration    17          0.694              1.668              1.400
 Vibration    18          0.704              1.641              1.325
 Vibration    19          0.738              1.546              1.105
 Vibration    20          0.740              1.540              1.092
 Vibration    21          0.779              1.437              0.908
 Vibration    22          0.802              1.379              0.821
 Vibration    23          0.824              1.323              0.746
 Vibration    24          0.850              1.264              0.674
 Vibration    25          0.890              1.173              0.577
 Vibration    26          0.910              1.130              0.535
 Vibration    27          0.979              0.991              0.418

 Optimization completed.
    -- Stationary point found.
 Normal termination of Gaussian 16 at Fri May 24 09:02:26 2019.
