 Gaussian 16, Revision A.03,
 Gaussian 16:  ES64L-G16RevA.03 25-Dec-2016

 -------------------------------------------------------------------
 #p b3lyp 6-31g* opt freq=noraman scrf=(pcm,solvent=tetrahydrofuran)
 -------------------------------------------------------------------

 -----
 title
 -----
 Symbolic Z-matrix:
 Charge =  1 Multiplicity = 1

 SCF Done:  E(RB3LYP) =  -768.327047285     A.U. after   14 cycles
 Optimization completed.
    -- Stationary point found.
 Normal termination of Gaussian 16 at Fri May 24 08:39:20 2019.

 --------------------------------------------------------------------
 #P Geom=AllCheck Guess=TCheck SCRF=Check GenChk RB3LYP/6-31G(d) Freq
 --------------------------------------------------------------------

 Structure from the checkpoint file:  "/scratch/Gau-60783.chk"
 -----
 title
 -----
 Charge =  1 Multiplicity = 1

                         Standard orientation:
 ---------------------------------------------------------------------
 Center     Atomic      Atomic             Coordinates (Angstroms)
 Number     Number       Type             X           Y           Z
 ---------------------------------------------------------------------
      1          6           0        0.742911    0.600912    0.576114
      2          6           0        1.461513    0.569593   -0.818145
      3          6           0        0.846560   -0.359882   -1.813265
      4          6           0       -1.193390   -0.640404   -0.553748
      5          6           0       -0.294223   -0.535742    0.669936
      6          1           0        1.409784   -0.634490   -2.707182
      7          1           0        1.237503    1.550603   -1.279103
      8          1           0        1.509716    0.435757    1.343609
      9          1           0       -1.715593   -1.596813   -0.536438
     10          1           0       -0.947248   -0.356937    1.532371
     11          8           0       -0.323731   -0.815970   -1.773077
     12          8           0        2.857795    0.466710   -0.841117
     13          8           0        0.085127    1.825996    0.787770
     14          8           0        0.396608   -1.770445    0.750700
     15          6           0       -2.177457    0.512752   -0.826201
     16          1           0       -2.644784    0.358646   -1.807784
     17          1           0       -1.652319    1.469422   -0.824641
     18          8           0       -3.125442    0.550919    0.215147
     19          6           0        3.413869   -0.758056   -0.336288
     20          1           0        4.484815   -0.691568   -0.529046
     21          1           0        3.245951   -0.866492    0.739921
     22          1           0        3.006331   -1.635131   -0.854858
     23          6           0        0.949973    2.901754    1.159345
     24          1           0        1.486706    2.665211    2.086919
     25          1           0        1.680171    3.127575    0.370607
     26          1           0        0.310251    3.771300    1.315157
     27          6           0        0.677976   -2.213077    2.082130
     28          1           0       -0.252070   -2.386828    2.636798
     29          1           0        1.225860   -3.151257    1.983142
     30          1           0        1.295427   -1.491673    2.631471
     31          6           0       -4.271818   -0.274952    0.006479
     32          1           0       -4.014488   -1.341480   -0.042047
     33          1           0       -4.928224   -0.109998    0.862749
     34          1           0       -4.796128    0.009099   -0.915174
 ---------------------------------------------------------------------

 SCF Done:  E(RB3LYP) =  -768.327047285     A.U. after    1 cycles

 The electronic state is 1-A.
 Alpha  occ. eigenvalues --  -19.32924 -19.20908 -19.19883 -19.19657 -19.18846
 Alpha  occ. eigenvalues --  -10.39631 -10.31916 -10.31650 -10.29750 -10.29539
 Alpha  occ. eigenvalues --  -10.27834 -10.26172 -10.25646 -10.25453 -10.24929
 Alpha  occ. eigenvalues --   -1.21657  -1.09612  -1.08356  -1.07400  -1.06833
 Alpha  occ. eigenvalues --   -0.87017  -0.85256  -0.77699  -0.75137  -0.74386
 Alpha  occ. eigenvalues --   -0.71339  -0.69396  -0.68463  -0.66397  -0.61936
 Alpha  occ. eigenvalues --   -0.59251  -0.58774  -0.56699  -0.54314  -0.53963
 Alpha  occ. eigenvalues --   -0.52866  -0.51641  -0.50906  -0.50300  -0.49294
 Alpha  occ. eigenvalues --   -0.48589  -0.47504  -0.47213  -0.46485  -0.45777
 Alpha  occ. eigenvalues --   -0.44670  -0.43332  -0.42285  -0.41525  -0.41152
 Alpha  occ. eigenvalues --   -0.39706  -0.36950  -0.36807  -0.35859  -0.34621
 Alpha  occ. eigenvalues --   -0.32879  -0.30689  -0.29500  -0.29042
 Alpha virt. eigenvalues --   -0.15094   0.00462   0.03533   0.04430   0.06694
 Alpha virt. eigenvalues --    0.06828   0.07392   0.09046   0.09947   0.10284
 Alpha virt. eigenvalues --    0.11037   0.11783   0.12257   0.12708   0.13039

 Mulliken charges:
               1
     1  C    0.125974
     2  C    0.029348
     3  C    0.273740
     4  C    0.056543
     5  C    0.059392
     6  H    0.278838
     7  H    0.266139
     8  H    0.187496
     9  H    0.233526
    10  H    0.207589
    11  O   -0.307088
    12  O   -0.468161
    13  O   -0.484984
    14  O   -0.494540
    15  C   -0.043685
    16  H    0.178316
    17  H    0.193575
    18  O   -0.463901
    19  C   -0.240308
    20  H    0.198063
    21  H    0.175071
    22  H    0.166875
    23  C   -0.229045
    24  H    0.168885
    25  H    0.163958
    26  H    0.190022
    27  C   -0.225628
    28  H    0.172368
    29  H    0.188387
    30  H    0.163734
    31  C   -0.225518
    32  H    0.156552
    33  H    0.184591
    34  H    0.163874
 Sum of Mulliken charges =   1.00000

 Dipole moment (field-independent basis, Debye):
    X=              1.5643    Y=             -1.8794    Z=             -2.4529  Tot=              3.4634
 Quadrupole moment (field-independent basis, Debye-Ang):
   XX=            -65.6153   YY=            -77.3524   ZZ=            -70.6191
   XY=              2.0143   XZ=              3.0955   YZ=             -1.6347

  Exact polarizability: 165.431   0.565 134.858  -4.662   0.349 132.122
 Approx polarizability: 178.813   2.634 156.048  -6.731   4.248 155.648

                      1                      2                      3
                      A                      A                      A
 Frequencies --     54.4708                60.3676                67.9163
 Red. masses --      3.7445                 3.3942                 2.6107
 Frc consts  --      0.0065                 0.0073                 0.0071
 IR Inten    --      0.7645                 0.3529                 2.5200

                      4                      5                      6
                      A                      A                      A
 Frequencies --     77.3691                88.1270                97.7343
 Red. masses --      3.1606                 2.5279                 2.4271
 Frc consts  --      0.0111                 0.0116                 0.0137
 IR Inten    --      0.9438                 9.6447                 2.0879

                      7                      8                      9
                      A                      A                      A
 Frequencies --    108.0569               138.8211               143.5284
 Red. masses --      2.3033                 1.5773                 1.4985
 Frc consts  --      0.0158                 0.0179                 0.0182
 IR Inten    --      7.2610                 3.1072                 2.1306

                     10                     11                     12
                      A                      A                      A
 Frequencies --    171.5497               174.1838               184.9337
 Red. masses --      1.8384                 1.8649                 1.7307
 Frc consts  --      0.0319                 0.0333                 0.0349
 IR Inten    --      3.4230                 4.9718                 0.5141

                     13                     14                     15
                      A                      A                      A
 Frequencies --    195.0573               219.4695               268.3272
 Red. masses --      1.5667                 2.1346                 3.5688
 Frc consts  --      0.0351                 0.0606                 0.1514
 IR Inten    --      1.2787                 3.3236                 9.3320

                     16                     17                     18
                      A                      A                      A
 Frequencies --    277.8375               300.9164               353.8611
 Red. masses --      3.6728                 3.8602                 4.8562
 Frc consts  --      0.1670                 0.2059                 0.3583
 IR Inten    --      2.8164                 1.7162                 8.3019

                     19                     20                     21
                      A                      A                      A
 Frequencies --    381.5783               396.0441               410.8082
 Red. masses --      4.1336                 3.5922                 4.0499
 Frc consts  --      0.3546                 0.3320                 0.4027
 IR Inten    --      8.7113                 3.1764                35.7171

                     22                     23                     24
                      A                      A                      A
 Frequencies --    445.6414               490.2583               510.8169
 Red. masses --      3.3867                 4.1031                 3.2931
 Frc consts  --      0.3963                 0.5811                 0.5063
 IR Inten    --     13.9077                28.0822                 9.5210

                     25                     26                     27
                      A                      A                      A
 Frequencies --    539.1007               595.8955               615.4069
 Red. masses --      5.1484                 4.8453                 3.9555
 Frc consts  --      0.8816                 1.0137                 0.8826
 IR Inten    --     25.9154                 0.3624                12.7600

                     28                     29                     30
                      A                      A                      A
 Frequencies --    730.3977               781.3659               850.4356
 Red. masses --      4.6632                 2.7484                 2.6456
 Frc consts  --      1.4657                 0.9886                 1.1273
 IR Inten    --     65.7600                 6.2491                 6.9626

                     31                     32                     33
                      A                      A                      A
 Frequencies --    913.5345               937.7851               957.7218
 Red. masses --      3.1121                 3.8216                 4.5447
 Frc consts  --      1.5302                 1.9802                 2.4560
 IR Inten    --      9.3237                45.2072                29.7152

                     34                     35                     36
                      A                      A                      A
 Frequencies --    968.2348               992.9001              1026.9950
 Red. masses --      3.1656                 2.6965                 2.5066
 Frc consts  --      1.7485                 1.5662                 1.5577
 IR Inten    --     32.9521                33.6177                 8.8510

                     37                     38                     39
                      A                      A                      A
 Frequencies --   1038.7367              1085.8281              1106.9981
 Red. masses --      3.5206                 2.2409                 2.5893
 Frc consts  --      2.2381                 1.5567                 1.8695
 IR Inten    --     37.8821                83.2267                70.3795

                     40                     41                     42
                      A                      A                      A
 Frequencies --   1122.5016              1127.6694              1150.9065
 Red. masses --      4.2643                 2.0919                 3.8065
 Frc consts  --      3.1657                 1.5673                 2.9707
 IR Inten    --    115.9833                88.3132               243.0050

                     43                     44                     45
                      A                      A                      A
 Frequencies --   1152.8881              1168.3148              1183.5788
 Red. masses --      3.0710                 3.3391                 1.2826
 Frc consts  --      2.4050                 2.6854                 1.0586
 IR Inten    --    169.6676                54.2958                 8.5106

                     46                     47                     48
                      A                      A                      A
 Frequencies --   1184.5942              1185.6441              1185.7449
 Red. masses --      1.2935                 1.2920                 1.3185
 Frc consts  --      1.0695                 1.0701                 1.0922
 IR Inten    --     17.8781                 9.5636                 3.5279

                     49                     50                     51
                      A                      A                      A
 Frequencies --   1217.6597              1220.5839              1225.8946
 Red. masses --      1.4856                 1.6358                 1.6447
 Frc consts  --      1.2978                 1.4359                 1.4562
 IR Inten    --      3.0421                88.9458                93.8124

                     52                     53                     54
                      A                      A                      A
 Frequencies --   1230.1976              1249.8060              1296.3088
 Red. masses --      1.6309                 1.7286                 1.4981
 Frc consts  --      1.4543                 1.5909                 1.4833
 IR Inten    --      6.6792                43.4869                31.9363

                     55                     56                     57
                      A                      A                      A
 Frequencies --   1321.4907              1334.6034              1339.4675
 Red. masses --      1.3081                 1.2675                 1.2764
 Frc consts  --      1.3459                 1.3301                 1.3492
 IR Inten    --      5.3407                15.7757                13.7963

                     58                     59                     60
                      A                      A                      A
 Frequencies --   1345.5865              1367.0052              1390.3320
 Red. masses --      1.2393                 1.3343                 1.3730
 Frc consts  --      1.3220                 1.4690                 1.5637
 IR Inten    --      2.9037                19.0023                39.7923

                     61                     62                     63
                      A                      A                      A
 Frequencies --   1412.4075              1424.4549              1439.1786
 Red. masses --      1.3242                 1.5152                 1.2219
 Frc consts  --      1.5564                 1.8114                 1.4911
 IR Inten    --     24.9170                 8.9698                24.4016

                     64                     65                     66
                      A                      A                      A
 Frequencies --   1497.6376              1497.7420              1500.2236
 Red. masses --      1.1199                 1.1275                 1.1093
 Frc consts  --      1.4799                 1.4902                 1.4709
 IR Inten    --      0.6972                 1.1912                 2.6392

                     67                     68                     69
                      A                      A                      A
 Frequencies --   1501.8232              1509.2594              1512.5449
 Red. masses --      1.1220                 1.0499                 1.0555
 Frc consts  --      1.4911                 1.4091                 1.4228
 IR Inten    --      4.2295                11.1942                 1.9103

                     70                     71                     72
                      A                      A                      A
 Frequencies --   1513.7404              1517.7835              1522.1252
 Red. masses --      1.0603                 1.0638                 1.0619
 Frc consts  --      1.4315                 1.4439                 1.4495
 IR Inten    --     17.1687                 8.4014                12.8738

                     73                     74                     75
                      A                      A                      A
 Frequencies --   1523.5475              1525.7474              1528.7871
 Red. masses --      1.0749                 1.0538                 1.0592
 Frc consts  --      1.4700                 1.4453                 1.4585
 IR Inten    --     18.5997                14.8292                14.2323

                     76                     77                     78
                      A                      A                      A
 Frequencies --   1531.3117              1642.8789              2975.0885
 Red. masses --      1.0957                 5.9354                 1.0782
 Frc consts  --      1.5139                 9.4386                 5.6226
 IR Inten    --     10.1671               189.9366                29.4654

                     79                     80                     81
                      A                      A                      A
 Frequencies --   3027.3937              3027.6822              3038.2415
 Red. masses --      1.0361                 1.0356                 1.0339
 Frc consts  --      5.5947                 5.5930                 5.6229
 IR Inten    --     85.5624                11.8301                53.8016

                     82                     83                     84
                      A                      A                      A
 Frequencies --   3043.2394              3048.5930              3057.1060
 Red. masses --      1.0385                 1.0679                 1.0842
 Frc consts  --      5.6666                 5.8475                 5.9701
 IR Inten    --     24.4172                38.2683                30.0971

                     85                     86                     87
                      A                      A                      A
 Frequencies --   3081.6775              3086.8119              3090.4034
 Red. masses --      1.0858                 1.1065                 1.1050
 Frc consts  --      6.0752                 6.2120                 6.2179
 IR Inten    --      4.7240                60.8982                48.6873

                     88                     89                     90
                      A                      A                      A
 Frequencies --   3100.7926              3117.2349              3151.8625
 Red. masses --      1.1072                 1.1014                 1.0950
 Frc consts  --      6.2724                 6.3057                 6.4091
 IR Inten    --     50.1245                42.2652                 3.4514

                     91                     92                     93
                      A                      A                      A
 Frequencies --   3161.8560              3169.2809              3169.7783
 Red. masses --      1.1001                 1.0899                 1.1016
 Frc consts  --      6.4797                 6.4498                 6.5212
 IR Inten    --     25.2169                 3.6727                20.2407

                     94                     95                     96
                      A                      A                      A
 Frequencies --   3172.7944              3180.7137              3192.9659
 Red. masses --      1.1006                 1.1022                 1.0943
 Frc consts  --      6.5276                 6.5697                 6.5730
 IR Inten    --     20.9985                18.8683                 2.1319

 - Thermochemistry -
 -------------------
 Temperature   298.150 Kelvin.  Pressure   1.00000 Atm.
 Atom     1 has atomic number  6 and mass  12.00000

 Molecular mass:   219.12325 amu.
 Principal axes and moments of inertia in atomic units:
                           1         2         3
     Eigenvalues --  2280.460764207.145224602.90247
           X            0.99989   0.00375   0.01407
           Y           -0.00312   0.99902  -0.04423
           Z           -0.01422   0.04418   0.99892
 This molecule is an asymmetric top.
 Rotational symmetry number  1.
 Warning -- assumption of classical behavior for rotation
           may cause significant error
 Rotational temperatures (Kelvin)      0.03798     0.02059     0.01882
 Rotational constants (GHZ):           0.79139     0.42897     0.39209
 Zero-point vibrational energy     773113.6 (Joules/Mol)
                                  184.77858 (Kcal/Mol)
 Warning -- explicit consideration of  27 degrees of freedom as
           vibrations may cause significant error
 Vibrational temperatures:     78.37    86.86    97.72   111.32   126.80
          (Kelvin)            140.62   155.47   199.73   206.51   246.82
                              250.61   266.08   280.64   315.77   386.06
                              399.75   432.95   509.13   549.01   569.82
                              591.06   641.18   705.37   734.95   775.65
                              857.36   885.43  1050.88  1124.21  1223.59
                             1314.37  1349.26  1377.95  1393.07  1428.56
                             1477.62  1494.51  1562.26  1592.72  1615.03
                             1622.46  1655.90  1658.75  1680.94  1702.91
                             1704.37  1705.88  1706.02  1751.94  1756.15
                             1763.79  1769.98  1798.19  1865.10  1901.33
                             1920.20  1927.19  1936.00  1966.82  2000.38
                             2032.14  2049.47  2070.66  2154.77  2154.92
                             2158.49  2160.79  2171.49  2176.21  2177.93
                             2183.75  2190.00  2192.05  2195.21  2199.58
                             2203.22  2363.74  4280.49  4355.74  4356.16
                             4371.35  4378.54  4386.25  4398.49  4433.85
                             4441.23  4446.40  4461.35  4485.01  4534.83
                             4549.21  4559.89  4560.60  4564.94  4576.34
                             4593.97

 Zero-point correction=                           0.294463 (Hartree/Particle)
 Thermal correction to Energy=                    0.311777
 Thermal correction to Enthalpy=                  0.312721
 Thermal correction to Gibbs Free Energy=         0.249287
 Sum of electronic and zero-point Energies=           -768.032584
 Sum of electronic and thermal Energies=              -768.015271
 Sum of electronic and thermal Enthalpies=            -768.014326
 Sum of electronic and thermal Free Energies=         -768.077760

                     E (Thermal)             CV                S
                      KCal/Mol        Cal/Mol-Kelvin    Cal/Mol-Kelvin
 Total                  195.643             61.602            133.508
 Electronic               0.000              0.000              0.000
 Translational            0.889              2.981             42.056
 Rotational               0.889              2.981             32.157
 Vibrational            193.865             55.641             59.294
 Vibration     1          0.596              1.976              4.648
 Vibration     2          0.597              1.973              4.445
 Vibration     3          0.598              1.970              4.213
 Vibration     4          0.599              1.964              3.957
 Vibration     5          0.601              1.958              3.701
 Vibration     6          0.603              1.951              3.499
 Vibration     7          0.606              1.943              3.304
 Vibration     8          0.614              1.915              2.820
 Vibration     9          0.616              1.910              2.756
 Vibration    10          0.626              1.877              2.418
 Vibration    11          0.627              1.874              2.390
 Vibration    12          0.631              1.860              2.278
 Vibration    13          0.636              1.847              2.179
 Vibration    14          0.647              1.811              1.963
 Vibration    15          0.673              1.731              1.607
 Vibration    16          0.679              1.714              1.547
 Vibration    17          0.693              1.672              1.412
 Vibration    18          0.730              1.567              1.149
 Vibration    19          0.751              1.509              1.033
 Vibration    20          0.763              1.479              0.977
 Vibration    21          0.775              1.447              0.924
 Vibration    22          0.805              1.371              0.809
 Vibration    23          0.846              1.272              0.683
 Vibration    24          0.866              1.226              0.632
 Vibration    25          0.894              1.164              0.567
 Vibration    26          0.954              1.041              0.457
 Vibration    27          0.975              0.999              0.424

                           ! Non-Optimized Parameters !
 Normal termination of Gaussian 16 at Fri May 24 09:29:06 2019.
