 Gaussian 16, Revision A.03,
 Gaussian 16:  ES64L-G16RevA.03 25-Dec-2016

 -------------------------------------------------------------------
 #p b3lyp 6-31g* opt freq=noraman scrf=(pcm,solvent=tetrahydrofuran)
 -------------------------------------------------------------------

 -----
 title
 -----
 Symbolic Z-matrix:
 Charge =  1 Multiplicity = 1

 SCF Done:  E(RB3LYP) =  -768.329395841     A.U. after   13 cycles
 Optimization completed.
    -- Stationary point found.
 Normal termination of Gaussian 16 at Fri May 24 08:34:53 2019.

 --------------------------------------------------------------------
 #P Geom=AllCheck Guess=TCheck SCRF=Check GenChk RB3LYP/6-31G(d) Freq
 --------------------------------------------------------------------

 Structure from the checkpoint file:  "/scratch/Gau-188414.chk"
 -----
 title
 -----
 Charge =  1 Multiplicity = 1

                         Standard orientation:
 ---------------------------------------------------------------------
 Center     Atomic      Atomic             Coordinates (Angstroms)
 Number     Number       Type             X           Y           Z
 ---------------------------------------------------------------------
      1          6           0        0.999708    0.942562   -0.383111
      2          6           0        1.914655   -0.279060   -0.583480
      3          6           0        1.022672   -1.308556   -1.241492
      4          6           0       -0.558958   -0.912622    0.527864
      5          6           0       -0.223948    0.595586    0.507456
      6          1           0        1.267207   -1.863464   -2.148181
      7          1           0        2.751767   -0.028304   -1.241167
      8          1           0        1.577017    1.748380    0.087649
      9          1           0        0.021342   -1.393764    1.314864
     10          1           0       -1.092014    1.131745    0.106389
     11          8           0       -0.088207   -1.600048   -0.738426
     12          8           0        2.328719   -0.784004    0.665162
     13          8           0        0.606715    1.254560   -1.708903
     14          8           0       -0.022068    0.902212    1.872346
     15          6           0       -2.028530   -1.244814    0.638713
     16          1           0       -2.364316   -0.883728    1.624058
     17          1           0       -2.166367   -2.336252    0.615845
     18          8           0       -2.712949   -0.613186   -0.416746
     19          6           0        3.563455   -1.521072    0.648124
     20          1           0        3.801213   -1.716967    1.694094
     21          1           0        3.463017   -2.472430    0.114403
     22          1           0        4.360591   -0.923121    0.192710
     23          6           0        0.182673    2.601680   -1.921242
     24          1           0       -0.042373    2.687973   -2.985297
     25          1           0       -0.717801    2.843602   -1.343533
     26          1           0        0.983250    3.304236   -1.656635
     27          6           0       -0.392980    2.230836    2.239416
     28          1           0       -0.233227    2.305767    3.316408
     29          1           0        0.226201    2.982707    1.733286
     30          1           0       -1.449636    2.422789    2.011489
     31          6           0       -4.117183   -0.840084   -0.378808
     32          1           0       -4.350052   -1.910485   -0.466222
     33          1           0       -4.545080   -0.306879   -1.229796
     34          1           0       -4.557819   -0.454815    0.551545
 ---------------------------------------------------------------------

 SCF Done:  E(RB3LYP) =  -768.329395841     A.U. after    1 cycles

 The electronic state is 1-A.
 Alpha  occ. eigenvalues --  -19.32702 -19.21565 -19.19633 -19.18961 -19.18296
 Alpha  occ. eigenvalues --  -10.39335 -10.31407 -10.31281 -10.29181 -10.28910
 Alpha  occ. eigenvalues --  -10.27407 -10.26259 -10.25428 -10.25041 -10.24603
 Alpha  occ. eigenvalues --   -1.21499  -1.09663  -1.07896  -1.07005  -1.06512
 Alpha  occ. eigenvalues --   -0.86696  -0.85232  -0.76479  -0.74642  -0.73807
 Alpha  occ. eigenvalues --   -0.70854  -0.69039  -0.67743  -0.66197  -0.61269
 Alpha  occ. eigenvalues --   -0.59919  -0.58249  -0.56974  -0.54232  -0.53290
 Alpha  occ. eigenvalues --   -0.51871  -0.50948  -0.50413  -0.50005  -0.49545
 Alpha  occ. eigenvalues --   -0.48320  -0.47800  -0.46557  -0.46146  -0.45566
 Alpha  occ. eigenvalues --   -0.43538  -0.42947  -0.42190  -0.41481  -0.40272
 Alpha  occ. eigenvalues --   -0.39434  -0.37224  -0.36285  -0.35963  -0.34974
 Alpha  occ. eigenvalues --   -0.32196  -0.31277  -0.28944  -0.28079
 Alpha virt. eigenvalues --   -0.15339   0.01041   0.04455   0.05808   0.06229
 Alpha virt. eigenvalues --    0.07225   0.08462   0.10359   0.10417   0.10964
 Alpha virt. eigenvalues --    0.11103   0.11843   0.12296   0.12664   0.12927

 Mulliken charges:
               1
     1  C    0.078126
     2  C    0.044486
     3  C    0.308236
     4  C    0.045409
     5  C    0.118751
     6  H    0.277908
     7  H    0.213465
     8  H    0.195663
     9  H    0.250227
    10  H    0.192529
    11  O   -0.295053
    12  O   -0.470055
    13  O   -0.495417
    14  O   -0.487568
    15  C   -0.035255
    16  H    0.179238
    17  H    0.174871
    18  O   -0.478777
    19  C   -0.228815
    20  H    0.198669
    21  H    0.173409
    22  H    0.178652
    23  C   -0.221813
    24  H    0.187815
    25  H    0.164818
    26  H    0.167299
    27  C   -0.224227
    28  H    0.184897
    29  H    0.159537
    30  H    0.163223
    31  C   -0.210386
    32  H    0.156260
    33  H    0.177823
    34  H    0.156054
 Sum of Mulliken charges =   1.00000

 Dipole moment (field-independent basis, Debye):
    X=              2.6780    Y=             -1.9044    Z=             -1.6310  Tot=              3.6686
 Quadrupole moment (field-independent basis, Debye-Ang):
   XX=            -56.6101   YY=            -64.9054   ZZ=            -79.6248
   XY=             -5.1705   XZ=             -7.1574   YZ=              2.2479

  Exact polarizability: 154.624  -4.378 137.697  -1.587   0.464 138.137
 Approx polarizability: 163.310  -1.447 152.745  -0.965   0.944 164.426

                      1                      2                      3
                      A                      A                      A
 Frequencies --     42.6958                48.7388                59.1638
 Red. masses --      3.8329                 2.2241                 2.7849
 Frc consts  --      0.0041                 0.0031                 0.0057
 IR Inten    --      0.5677                 0.8379                 1.2044

                      4                      5                      6
                      A                      A                      A
 Frequencies --     86.4872                88.1865                96.2533
 Red. masses --      2.6165                 2.5365                 2.3609
 Frc consts  --      0.0115                 0.0116                 0.0129
 IR Inten    --      3.4533                 5.1717                 3.1212

                      7                      8                      9
                      A                      A                      A
 Frequencies --    106.8544               126.5108               140.5789
 Red. masses --      2.0406                 2.5954                 2.8746
 Frc consts  --      0.0137                 0.0245                 0.0335
 IR Inten    --      8.2656                 4.1447                 1.8277

                     10                     11                     12
                      A                      A                      A
 Frequencies --    160.1167               188.6257               215.5080
 Red. masses --      2.7118                 1.3068                 1.8245
 Frc consts  --      0.0410                 0.0274                 0.0499
 IR Inten    --      8.6981                 4.5494                 2.4502

                     13                     14                     15
                      A                      A                      A
 Frequencies --    227.4752               240.6953               251.1066
 Red. masses --      1.7032                 1.8811                 3.0699
 Frc consts  --      0.0519                 0.0642                 0.1140
 IR Inten    --      8.0707                 0.3890                14.7039

                     16                     17                     18
                      A                      A                      A
 Frequencies --    273.8751               297.9058               323.4575
 Red. masses --      2.4756                 2.9389                 3.4693
 Frc consts  --      0.1094                 0.1537                 0.2139
 IR Inten    --     23.4164                 4.3294                 0.7277

                     19                     20                     21
                      A                      A                      A
 Frequencies --    333.6339               360.6876               393.8173
 Red. masses --      3.3563                 3.5400                 3.9578
 Frc consts  --      0.2201                 0.2713                 0.3617
 IR Inten    --      7.1756                13.8969                 6.9685

                     22                     23                     24
                      A                      A                      A
 Frequencies --    432.9219               457.2627               495.3133
 Red. masses --      3.8118                 3.2558                 5.7151
 Frc consts  --      0.4209                 0.4011                 0.8261
 IR Inten    --     12.6007                16.0873                 2.0272

                     25                     26                     27
                      A                      A                      A
 Frequencies --    556.3252               603.2050               653.4191
 Red. masses --      4.6190                 4.1603                 4.4491
 Frc consts  --      0.8423                 0.8919                 1.1192
 IR Inten    --     17.5975                21.7085                24.8668

                     28                     29                     30
                      A                      A                      A
 Frequencies --    744.4525               862.9834               883.2587
 Red. masses --      4.4738                 3.5177                 2.6289
 Frc consts  --      1.4608                 1.5435                 1.2084
 IR Inten    --     44.4837                44.6120                17.8312

                     31                     32                     33
                      A                      A                      A
 Frequencies --    899.6072               943.1990               947.4916
 Red. masses --      4.0743                 3.1278                 4.1601
 Frc consts  --      1.9427                 1.6395                 2.2004
 IR Inten    --      4.3788                 9.7758                23.9460

                     34                     35                     36
                      A                      A                      A
 Frequencies --    977.7317              1016.6722              1033.6799
 Red. masses --      3.1187                 3.4263                 2.0549
 Frc consts  --      1.7566                 2.0866                 1.2936
 IR Inten    --     22.2662                42.1461                 1.0554

                     37                     38                     39
                      A                      A                      A
 Frequencies --   1049.7554              1061.2958              1099.3144
 Red. masses --      3.3415                 2.9354                 2.0541
 Frc consts  --      2.1695                 1.9480                 1.4626
 IR Inten    --     82.4422                69.0984                15.6903

                     40                     41                     42
                      A                      A                      A
 Frequencies --   1121.6982              1138.2781              1142.1809
 Red. masses --      3.7013                 4.9911                 3.9605
 Frc consts  --      2.7438                 3.8102                 3.0442
 IR Inten    --     87.1641               298.2682               216.2875

                     43                     44                     45
                      A                      A                      A
 Frequencies --   1151.1484              1169.7224              1185.6978
 Red. masses --      3.3926                 2.4252                 1.2672
 Frc consts  --      2.6488                 1.9551                 1.0496
 IR Inten    --     83.7594               111.0581                 1.4628

                     46                     47                     48
                      A                      A                      A
 Frequencies --   1186.8242              1188.1914              1190.5023
 Red. masses --      1.2658                 1.2768                 1.2772
 Frc consts  --      1.0505                 1.0621                 1.0665
 IR Inten    --      5.2934                 4.3770                 1.3613

                     49                     50                     51
                      A                      A                      A
 Frequencies --   1218.1967              1221.3573              1230.7793
 Red. masses --      1.5155                 1.5259                 1.6874
 Frc consts  --      1.3250                 1.3411                 1.5060
 IR Inten    --     17.4252                47.7419                20.5897

                     52                     53                     54
                      A                      A                      A
 Frequencies --   1236.8872              1260.7896              1285.0629
 Red. masses --      1.6687                 1.4965                 1.2557
 Frc consts  --      1.5041                 1.4016                 1.2218
 IR Inten    --     40.8708                17.8387                18.3798

                     55                     56                     57
                      A                      A                      A
 Frequencies --   1308.4006              1323.5463              1337.9385
 Red. masses --      1.2588                 1.2020                 1.3952
 Frc consts  --      1.2697                 1.2406                 1.4715
 IR Inten    --     15.9126                 9.5030                24.0492

                     58                     59                     60
                      A                      A                      A
 Frequencies --   1359.8693              1379.5978              1403.7806
 Red. masses --      1.2536                 1.2521                 1.5312
 Frc consts  --      1.3659                 1.4040                 1.7778
 IR Inten    --     19.4437                10.9517                13.6022

                     61                     62                     63
                      A                      A                      A
 Frequencies --   1412.2377              1428.9699              1441.6171
 Red. masses --      1.3728                 1.3885                 1.4400
 Frc consts  --      1.6132                 1.6704                 1.7633
 IR Inten    --     30.8011                20.9593                28.8385

                     64                     65                     66
                      A                      A                      A
 Frequencies --   1496.0771              1499.0268              1499.4753
 Red. masses --      1.1172                 1.1217                 1.1426
 Frc consts  --      1.4732                 1.4851                 1.5136
 IR Inten    --      3.7854                 1.3184                 6.2833

                     67                     68                     69
                      A                      A                      A
 Frequencies --   1501.4968              1509.9852              1511.7031
 Red. masses --      1.1189                 1.0461                 1.0458
 Frc consts  --      1.4863                 1.4053                 1.4081
 IR Inten    --      0.2335                 9.1311                10.3543

                     70                     71                     72
                      A                      A                      A
 Frequencies --   1517.8233              1520.3188              1520.7314
 Red. masses --      1.0675                 1.0658                 1.0692
 Frc consts  --      1.4490                 1.4514                 1.4568
 IR Inten    --     16.2066                 4.1075                36.0644

                     73                     74                     75
                      A                      A                      A
 Frequencies --   1522.1357              1529.1896              1533.7752
 Red. masses --      1.0792                 1.0576                 1.0467
 Frc consts  --      1.4731                 1.4571                 1.4507
 IR Inten    --      1.0682                25.8095                 2.6465

                     76                     77                     78
                      A                      A                      A
 Frequencies --   1537.4320              1650.4784              3009.7962
 Red. masses --      1.0946                 6.8085                 1.0534
 Frc consts  --      1.5244                10.9276                 5.6223
 IR Inten    --      5.4329               164.0298                34.8192

                     79                     80                     81
                      A                      A                      A
 Frequencies --   3020.5613              3031.5303              3036.7027
 Red. masses --      1.0385                 1.0340                 1.0340
 Frc consts  --      5.5825                 5.5986                 5.6178
 IR Inten    --     70.5924                40.8117                65.4051

                     82                     83                     84
                      A                      A                      A
 Frequencies --   3047.8476              3053.7451              3067.5491
 Red. masses --      1.1052                 1.0323                 1.0858
 Frc consts  --      6.0488                 5.6718                 6.0199
 IR Inten    --     50.3486                59.0639                17.7250

                     85                     86                     87
                      A                      A                      A
 Frequencies --   3072.8380              3074.5860              3091.8902
 Red. masses --      1.0849                 1.1068                 1.1061
 Frc consts  --      6.0357                 6.1642                 6.2301
 IR Inten    --     12.2747                52.7413                60.7332

                     88                     89                     90
                      A                      A                      A
 Frequencies --   3099.3378              3119.3273              3125.3923
 Red. masses --      1.1067                 1.0925                 1.1023
 Frc consts  --      6.2633                 6.2631                 6.3442
 IR Inten    --     43.6139                30.6639                17.5752

                     91                     92                     93
                      A                      A                      A
 Frequencies --   3158.6764              3163.9591              3168.4903
 Red. masses --      1.0997                 1.1006                 1.0921
 Frc consts  --      6.4644                 6.4917                 6.4596
 IR Inten    --     26.7505                24.7630                 2.2227

                     94                     95                     96
                      A                      A                      A
 Frequencies --   3168.5130              3180.5240              3198.6245
 Red. masses --      1.0956                 1.1029                 1.0952
 Frc consts  --      6.4808                 6.5735                 6.6021
 IR Inten    --     21.5364                11.9361                 0.5508

 - Thermochemistry -
 -------------------
 Temperature   298.150 Kelvin.  Pressure   1.00000 Atm.
 Atom     1 has atomic number  6 and mass  12.00000

 Molecular mass:   219.12325 amu.
 Principal axes and moments of inertia in atomic units:
                           1         2         3
     Eigenvalues --  2606.029594072.473034422.04701
           X            0.99995  -0.00854  -0.00441
           Y            0.00844   0.99969  -0.02336
           Z            0.00460   0.02332   0.99972
 This molecule is an asymmetric top.
 Rotational symmetry number  1.
 Warning -- assumption of classical behavior for rotation
           may cause significant error
 Rotational temperatures (Kelvin)      0.03324     0.02127     0.01959
 Rotational constants (GHZ):           0.69253     0.44316     0.40812
 Zero-point vibrational energy     773643.4 (Joules/Mol)
                                  184.90521 (Kcal/Mol)
 Warning -- explicit consideration of  26 degrees of freedom as
           vibrations may cause significant error
 Vibrational temperatures:     61.43    70.12    85.12   124.44   126.88
          (Kelvin)            138.49   153.74   182.02   202.26   230.37
                              271.39   310.07   327.29   346.31   361.29
                              394.05   428.62   465.38   480.02   518.95
                              566.62   622.88   657.90   712.65   800.43
                              867.88   940.12  1071.10  1241.64  1270.81
                             1294.33  1357.05  1363.23  1406.74  1462.76
                             1487.23  1510.36  1526.97  1581.67  1613.87
                             1637.73  1643.34  1656.25  1682.97  1705.95
                             1707.58  1709.54  1712.87  1752.71  1757.26
                             1770.82  1779.60  1813.99  1848.92  1882.50
                             1904.29  1925.00  1956.55  1984.93  2019.73
                             2031.90  2055.97  2074.17  2152.52  2156.77
                             2157.41  2160.32  2172.53  2175.00  2183.81
                             2187.40  2187.99  2190.01  2200.16  2206.76
                             2212.02  2374.67  4330.43  4345.91  4361.70
                             4369.14  4385.17  4393.66  4413.52  4421.13
                             4423.64  4448.54  4459.26  4488.02  4496.74
                             4544.63  4552.23  4558.75  4558.78  4576.06
                             4602.11

 Zero-point correction=                           0.294665 (Hartree/Particle)
 Thermal correction to Energy=                    0.312076
 Thermal correction to Enthalpy=                  0.313021
 Thermal correction to Gibbs Free Energy=         0.249009
 Sum of electronic and zero-point Energies=           -768.034731
 Sum of electronic and thermal Energies=              -768.017319
 Sum of electronic and thermal Enthalpies=            -768.016375
 Sum of electronic and thermal Free Energies=         -768.080386

                     E (Thermal)             CV                S
                      KCal/Mol        Cal/Mol-Kelvin    Cal/Mol-Kelvin
 Total                  195.831             61.584            134.723
 Electronic               0.000              0.000              0.000
 Translational            0.889              2.981             42.056
 Rotational               0.889              2.981             32.218
 Vibrational            194.053             55.622             60.449
 Vibration     1          0.595              1.980              5.130
 Vibration     2          0.595              1.978              4.868
 Vibration     3          0.597              1.974              4.485
 Vibration     4          0.601              1.959              3.738
 Vibration     5          0.601              1.957              3.700
 Vibration     6          0.603              1.952              3.529
 Vibration     7          0.606              1.944              3.325
 Vibration     8          0.611              1.927              2.998
 Vibration     9          0.615              1.913              2.796
 Vibration    10          0.622              1.891              2.548
 Vibration    11          0.633              1.855              2.241
 Vibration    12          0.645              1.817              1.997
 Vibration    13          0.651              1.799              1.899
 Vibration    14          0.658              1.778              1.798
 Vibration    15          0.663              1.761              1.723
 Vibration    16          0.676              1.722              1.572
 Vibration    17          0.691              1.678              1.429
 Vibration    18          0.708              1.629              1.293
 Vibration    19          0.715              1.608              1.242
 Vibration    20          0.735              1.553              1.119
 Vibration    21          0.761              1.483              0.986
 Vibration    22          0.794              1.398              0.849
 Vibration    23          0.815              1.345              0.774
 Vibration    24          0.851              1.260              0.670
 Vibration    25          0.912              1.126              0.531
 Vibration    26          0.962              1.025              0.444

                           ! Non-Optimized Parameters !
 Normal termination of Gaussian 16 at Fri May 24 08:53:35 2019.
