 Gaussian 16, Revision A.03,
 Gaussian 16:  ES64L-G16RevA.03 25-Dec-2016

 -------------------------------------------------------------------
 #p b3lyp 6-31g* opt freq=noraman scrf=(pcm,solvent=tetrahydrofuran)
 -------------------------------------------------------------------

 -----
 title
 -----
 Symbolic Z-matrix:
 Charge =  1 Multiplicity = 1

 SCF Done:  E(RB3LYP) =  -768.329287846     A.U. after   13 cycles
 Optimization completed.
    -- Stationary point found.
 Normal termination of Gaussian 16 at Fri May 24 08:34:46 2019.

 --------------------------------------------------------------------
 #P Geom=AllCheck Guess=TCheck SCRF=Check GenChk RB3LYP/6-31G(d) Freq
 --------------------------------------------------------------------

 Structure from the checkpoint file:  "/scratch/Gau-21268.chk"
 -----
 title
 -----
 Charge =  1 Multiplicity = 1

                         Standard orientation:
 ---------------------------------------------------------------------
 Center     Atomic      Atomic             Coordinates (Angstroms)
 Number     Number       Type             X           Y           Z
 ---------------------------------------------------------------------
      1          6           0        0.889791    0.802302   -0.341325
      2          6           0        1.013223   -0.462736   -1.239451
      3          6           0        0.309402   -1.673569   -0.716289
      4          6           0       -1.035435   -0.399073    0.832033
      5          6           0        0.225155    0.439152    1.005317
      6          1           0        0.563851   -2.655855   -1.118923
      7          1           0        0.406704   -0.225440   -2.134777
      8          1           0        1.901506    1.173626   -0.140734
      9          1           0       -1.346357   -0.814312    1.790038
     10          1           0       -0.060499    1.351346    1.544083
     11          8           0       -0.647254   -1.670237    0.095061
     12          8           0        2.280198   -0.792985   -1.731432
     13          8           0        0.141560    1.752560   -1.071713
     14          8           0        1.126975   -0.358341    1.753341
     15          6           0       -2.230915    0.217485    0.126615
     16          1           0       -2.002251    0.477539   -0.915772
     17          1           0       -2.462260    1.158711    0.652551
     18          8           0       -3.287178   -0.707776    0.218474
     19          6           0        3.256988   -1.182378   -0.753894
     20          1           0        3.539725   -0.345416   -0.107012
     21          1           0        2.900669   -2.013597   -0.132258
     22          1           0        4.127470   -1.506427   -1.324598
     23          6           0        0.422214    3.115431   -0.741242
     24          1           0       -0.201211    3.722170   -1.399462
     25          1           0        0.172870    3.346498    0.301718
     26          1           0        1.479464    3.347406   -0.921058
     27          6           0        1.957077    0.367741    2.666101
     28          1           0        1.348750    0.854097    3.438368
     29          1           0        2.615721   -0.367580    3.130182
     30          1           0        2.564938    1.124289    2.154191
     31          6           0       -4.483543   -0.232309   -0.387966
     32          1           0       -4.336806   -0.033107   -1.458927
     33          1           0       -5.230793   -1.018531   -0.265934
     34          1           0       -4.839640    0.686553    0.099073
 ---------------------------------------------------------------------

 SCF Done:  E(RB3LYP) =  -768.329287846     A.U. after    1 cycles

 The electronic state is 1-A.
 Alpha  occ. eigenvalues --  -19.32579 -19.20868 -19.20083 -19.19788 -19.18267
 Alpha  occ. eigenvalues --  -10.39544 -10.31941 -10.31892 -10.29959 -10.29855
 Alpha  occ. eigenvalues --  -10.27984 -10.26154 -10.25825 -10.25567 -10.24614
 Alpha  occ. eigenvalues --   -1.21413  -1.09651  -1.08436  -1.07424  -1.06702
 Alpha  occ. eigenvalues --   -0.87228  -0.85448  -0.77640  -0.75070  -0.74425
 Alpha  occ. eigenvalues --   -0.70941  -0.69457  -0.69184  -0.66125  -0.61906
 Alpha  occ. eigenvalues --   -0.59048  -0.58800  -0.56803  -0.54428  -0.53763
 Alpha  occ. eigenvalues --   -0.53038  -0.51729  -0.50825  -0.50425  -0.49476
 Alpha  occ. eigenvalues --   -0.48374  -0.47526  -0.47231  -0.46729  -0.45805
 Alpha  occ. eigenvalues --   -0.43768  -0.43432  -0.42381  -0.42061  -0.40406
 Alpha  occ. eigenvalues --   -0.40329  -0.36881  -0.36755  -0.36218  -0.35421
 Alpha  occ. eigenvalues --   -0.32334  -0.31618  -0.28881  -0.28778
 Alpha virt. eigenvalues --   -0.14884   0.00735   0.03340   0.04320   0.06176
 Alpha virt. eigenvalues --    0.06841   0.07610   0.08914   0.09137   0.09813
 Alpha virt. eigenvalues --    0.10618   0.11658   0.12257   0.12713   0.12887

 Mulliken charges:
               1
     1  C    0.127391
     2  C    0.036862
     3  C    0.276341
     4  C    0.059979
     5  C    0.042610
     6  H    0.279187
     7  H    0.272929
     8  H    0.190973
     9  H    0.240836
    10  H    0.201012
    11  O   -0.299194
    12  O   -0.467037
    13  O   -0.493364
    14  O   -0.490242
    15  C   -0.025724
    16  H    0.174499
    17  H    0.177508
    18  O   -0.478099
    19  C   -0.241034
    20  H    0.174460
    21  H    0.166839
    22  H    0.198598
    23  C   -0.227355
    24  H    0.189794
    25  H    0.162481
    26  H    0.170076
    27  C   -0.225678
    28  H    0.172646
    29  H    0.190569
    30  H    0.164081
    31  C   -0.212017
    32  H    0.154530
    33  H    0.179534
    34  H    0.156011
 Sum of Mulliken charges =   1.00000

 Dipole moment (field-independent basis, Debye):
    X=              1.4891    Y=              0.6194    Z=              0.9049  Tot=              1.8493
 Quadrupole moment (field-independent basis, Debye-Ang):
   XX=            -64.4105   YY=            -70.8348   ZZ=            -80.3157
   XY=             -4.4922   XZ=              6.1150   YZ=              6.6471

  Exact polarizability: 157.340  -5.005 136.985  -2.086   2.701 130.654
 Approx polarizability: 166.579  -2.833 159.423  -5.805   0.081 155.019

                      1                      2                      3
                      A                      A                      A
 Frequencies --     27.7988                66.2874                77.2654
 Red. masses --      4.0523                 3.0898                 3.0628
 Frc consts  --      0.0018                 0.0080                 0.0108
 IR Inten    --      0.3952                 0.4328                 2.2684

                      4                      5                      6
                      A                      A                      A
 Frequencies --     87.3994                95.3983               103.5455
 Red. masses --      2.5627                 2.6372                 2.3217
 Frc consts  --      0.0115                 0.0141                 0.0147
 IR Inten    --      1.6775                 4.7172                 9.6421

                      7                      8                      9
                      A                      A                      A
 Frequencies --    115.9716               140.2188               144.1572
 Red. masses --      1.9142                 1.7003                 1.8788
 Frc consts  --      0.0152                 0.0197                 0.0230
 IR Inten    --      4.5048                 2.9987                 1.1246

                     10                     11                     12
                      A                      A                      A
 Frequencies --    147.4605               158.5550               198.6883
 Red. masses --      1.5680                 1.8311                 1.5078
 Frc consts  --      0.0201                 0.0271                 0.0351
 IR Inten    --      3.6006                 0.6469                 2.6212

                     13                     14                     15
                      A                      A                      A
 Frequencies --    210.0818               240.9885               262.7563
 Red. masses --      2.7054                 1.4332                 3.4748
 Frc consts  --      0.0703                 0.0490                 0.1413
 IR Inten    --      6.5136                11.8304                 2.1093

                     16                     17                     18
                      A                      A                      A
 Frequencies --    290.6861               301.5033               321.6139
 Red. masses --      3.8784                 3.9573                 5.0693
 Frc consts  --      0.1931                 0.2119                 0.3089
 IR Inten    --      9.7076                 9.4061                 5.4033

                     19                     20                     21
                      A                      A                      A
 Frequencies --    335.3941               376.7384               389.6030
 Red. masses --      3.2069                 4.4949                 4.0753
 Frc consts  --      0.2125                 0.3759                 0.3645
 IR Inten    --      7.5496                10.5468                 7.2106

                     22                     23                     24
                      A                      A                      A
 Frequencies --    448.4604               496.6136               526.9838
 Red. masses --      4.3382                 5.0917                 4.3246
 Frc consts  --      0.5141                 0.7399                 0.7076
 IR Inten    --     15.5176                10.0756                23.1544

                     25                     26                     27
                      A                      A                      A
 Frequencies --    563.3415               616.8437               630.2373
 Red. masses --      3.4894                 4.7714                 3.3771
 Frc consts  --      0.6524                 1.0697                 0.7903
 IR Inten    --     18.8418                 3.7087                 6.8030

                     28                     29                     30
                      A                      A                      A
 Frequencies --    681.7301               791.6814               902.8348
 Red. masses --      4.3074                 3.0495                 2.8522
 Frc consts  --      1.1795                 1.1261                 1.3698
 IR Inten    --     74.4434                10.4302                15.9735

                     31                     32                     33
                      A                      A                      A
 Frequencies --    916.4824               950.1595               958.3577
 Red. masses --      2.6391                 3.7025                 3.2523
 Frc consts  --      1.3061                 1.9694                 1.7599
 IR Inten    --     40.1712                14.0669                28.5761

                     34                     35                     36
                      A                      A                      A
 Frequencies --    970.9896              1003.8328              1029.5476
 Red. masses --      3.1955                 3.1993                 2.5903
 Frc consts  --      1.7751                 1.8995                 1.6177
 IR Inten    --     31.9505                21.9316                46.2429

                     37                     38                     39
                      A                      A                      A
 Frequencies --   1042.6324              1086.1797              1124.3223
 Red. masses --      2.7325                 2.3183                 3.1606
 Frc consts  --      1.7501                 1.6115                 2.3540
 IR Inten    --      9.5213                18.8172               123.5095

                     40                     41                     42
                      A                      A                      A
 Frequencies --   1128.0644              1139.3516              1148.8805
 Red. masses --      4.1224                 3.6156                 1.9457
 Frc consts  --      3.0908                 2.7653                 1.5131
 IR Inten    --    233.0085               141.2362                19.7884

                     43                     44                     45
                      A                      A                      A
 Frequencies --   1161.5434              1168.8842              1190.0280
 Red. masses --      5.1180                 3.6426                 1.2987
 Frc consts  --      4.0683                 2.9323                 1.0836
 IR Inten    --    289.4762                72.2248                 0.6061

                     46                     47                     48
                      A                      A                      A
 Frequencies --   1190.1425              1191.6737              1193.1110
 Red. masses --      1.2940                 1.2759                 1.3296
 Frc consts  --      1.0799                 1.0675                 1.1151
 IR Inten    --      5.5819                10.0677                 1.7503

                     49                     50                     51
                      A                      A                      A
 Frequencies --   1219.4585              1224.0995              1233.2013
 Red. masses --      1.4740                 1.5270                 1.6370
 Frc consts  --      1.2915                 1.3481                 1.4668
 IR Inten    --     44.2618                22.3000                29.2900

                     52                     53                     54
                      A                      A                      A
 Frequencies --   1235.3836              1247.2357              1272.8443
 Red. masses --      1.6700                 1.7868                 1.1825
 Frc consts  --      1.5017                 1.6376                 1.1288
 IR Inten    --     27.3786                34.8393                 6.6097

                     55                     56                     57
                      A                      A                      A
 Frequencies --   1294.5628              1316.5730              1339.6880
 Red. masses --      1.5004                 1.2550                 1.2533
 Frc consts  --      1.4815                 1.2817                 1.3253
 IR Inten    --     40.0747                 8.5573                 1.5565

                     58                     59                     60
                      A                      A                      A
 Frequencies --   1345.8570              1368.8352              1392.1025
 Red. masses --      1.2199                 1.2765                 1.3914
 Frc consts  --      1.3019                 1.4092                 1.5887
 IR Inten    --      8.7261                35.7472                31.3777

                     61                     62                     63
                      A                      A                      A
 Frequencies --   1412.0286              1415.9530              1446.9860
 Red. masses --      1.4319                 1.3451                 1.4219
 Frc consts  --      1.6821                 1.5889                 1.7541
 IR Inten    --     23.1877                22.9651                39.4907

                     64                     65                     66
                      A                      A                      A
 Frequencies --   1497.1003              1497.4891              1500.7259
 Red. masses --      1.1108                 1.0889                 1.1268
 Frc consts  --      1.4669                 1.4387                 1.4953
 IR Inten    --      2.3667                 7.1509                 1.1972

                     67                     68                     69
                      A                      A                      A
 Frequencies --   1503.7783              1510.8291              1511.6208
 Red. masses --      1.1569                 1.0487                 1.0470
 Frc consts  --      1.5413                 1.4103                 1.4095
 IR Inten    --      0.3896                12.0482                14.2668

                     70                     71                     72
                      A                      A                      A
 Frequencies --   1512.8287              1516.7339              1524.4734
 Red. masses --      1.0517                 1.0847                 1.0643
 Frc consts  --      1.4181                 1.4702                 1.4574
 IR Inten    --      5.8653                 4.5722                12.9457

                     73                     74                     75
                      A                      A                      A
 Frequencies --   1529.4852              1531.8204              1536.2317
 Red. masses --      1.0744                 1.0701                 1.0606
 Frc consts  --      1.4809                 1.4795                 1.4747
 IR Inten    --     18.3132                13.0873                20.5923

                     76                     77                     78
                      A                      A                      A
 Frequencies --   1541.0547              1653.2535              2968.5217
 Red. masses --      1.0938                 6.2390                 1.0785
 Frc consts  --      1.5304                10.0471                 5.5997
 IR Inten    --      5.8025               185.3584                37.3322

                     79                     80                     81
                      A                      A                      A
 Frequencies --   3003.6865              3018.2130              3035.8347
 Red. masses --      1.0637                 1.0377                 1.0340
 Frc consts  --      5.6542                 5.5696                 5.6150
 IR Inten    --     38.1401                60.7821                29.7265

                     82                     83                     84
                      A                      A                      A
 Frequencies --   3037.5744              3043.4354              3065.1001
 Red. masses --      1.0342                 1.0388                 1.0953
 Frc consts  --      5.6221                 5.6689                 6.0629
 IR Inten    --     65.0205                30.0895                61.3841

                     85                     86                     87
                      A                      A                      A
 Frequencies --   3072.5906              3075.0094              3079.4018
 Red. masses --      1.1060                 1.0840                 1.0849
 Frc consts  --      6.1519                 6.0391                 6.0611
 IR Inten    --     32.5451                31.7019                 5.5158

                     88                     89                     90
                      A                      A                      A
 Frequencies --   3097.9082              3100.9808              3117.7941
 Red. masses --      1.1072                 1.1075                 1.1000
 Frc consts  --      6.2608                 6.2746                 6.3000
 IR Inten    --     49.5572                48.2952                46.7324

                     91                     92                     93
                      A                      A                      A
 Frequencies --   3160.1838              3170.1107              3171.4051
 Red. masses --      1.0993                 1.1010                 1.1014
 Frc consts  --      6.4682                 6.5193                 6.5268
 IR Inten    --     28.3627                22.6947                16.6904

                     94                     95                     96
                      A                      A                      A
 Frequencies --   3172.8180              3180.8741              3192.6451
 Red. masses --      1.0876                 1.1022                 1.0945
 Frc consts  --      6.4507                 6.5703                 6.5730
 IR Inten    --      0.6327                18.9223                 1.0549

 - Thermochemistry -
 -------------------
 Temperature   298.150 Kelvin.  Pressure   1.00000 Atm.
 Atom     1 has atomic number  6 and mass  12.00000

 Molecular mass:   219.12325 amu.
 Principal axes and moments of inertia in atomic units:
                           1         2         3
     Eigenvalues --  2379.886674455.643014628.17844
           X            0.99970  -0.01108   0.02179
           Y            0.00933   0.99683   0.07902
           Z           -0.02259  -0.07880   0.99663
 This molecule is an asymmetric top.
 Rotational symmetry number  1.
 Warning -- assumption of classical behavior for rotation
           may cause significant error
 Rotational temperatures (Kelvin)      0.03639     0.01944     0.01871
 Rotational constants (GHZ):           0.75833     0.40505     0.38995
 Zero-point vibrational energy     773034.9 (Joules/Mol)
                                  184.75978 (Kcal/Mol)
 Warning -- explicit consideration of  26 degrees of freedom as
           vibrations may cause significant error
 Vibrational temperatures:     40.00    95.37   111.17   125.75   137.26
          (Kelvin)            148.98   166.86   201.74   207.41   212.16
                              228.13   285.87   302.26   346.73   378.05
                              418.23   433.80   462.73   482.56   542.04
                              560.55   645.23   714.52   758.21   810.52
                              887.50   906.77   980.86  1139.05  1298.98
                             1318.61  1367.07  1378.86  1397.04  1444.29
                             1481.29  1500.12  1562.77  1617.65  1623.03
                             1639.27  1652.98  1671.20  1681.76  1712.18
                             1712.35  1714.55  1716.62  1754.53  1761.21
                             1774.30  1777.44  1794.49  1831.34  1862.59
                             1894.25  1927.51  1936.39  1969.45  2002.92
                             2031.59  2037.24  2081.89  2153.99  2154.55
                             2159.21  2163.60  2173.75  2174.89  2176.62
                             2182.24  2193.38  2200.59  2203.95  2210.29
                             2217.23  2378.66  4271.04  4321.63  4342.54
                             4367.89  4370.39  4378.82  4410.00  4420.77
                             4424.25  4430.57  4457.20  4461.62  4485.81
                             4546.80  4561.08  4562.94  4564.98  4576.57
                             4593.50

 Zero-point correction=                           0.294433 (Hartree/Particle)
 Thermal correction to Energy=                    0.311758
 Thermal correction to Enthalpy=                  0.312702
 Thermal correction to Gibbs Free Energy=         0.248966
 Sum of electronic and zero-point Energies=           -768.034854
 Sum of electronic and thermal Energies=              -768.017530
 Sum of electronic and thermal Enthalpies=            -768.016585
 Sum of electronic and thermal Free Energies=         -768.080322

                     E (Thermal)             CV                S
                      KCal/Mol        Cal/Mol-Kelvin    Cal/Mol-Kelvin
 Total                  195.631             61.520            134.144
 Electronic               0.000              0.000              0.000
 Translational            0.889              2.981             42.056
 Rotational               0.889              2.981             32.262
 Vibrational            193.854             55.559             59.826
 Vibration     1          0.593              1.984              5.981
 Vibration     2          0.598              1.970              4.261
 Vibration     3          0.599              1.964              3.959
 Vibration     4          0.601              1.958              3.717
 Vibration     5          0.603              1.952              3.546
 Vibration     6          0.605              1.946              3.386
 Vibration     7          0.608              1.936              3.166
 Vibration     8          0.615              1.913              2.801
 Vibration     9          0.616              1.909              2.748
 Vibration    10          0.617              1.905              2.705
 Vibration    11          0.621              1.893              2.567
 Vibration    12          0.637              1.842              2.145
 Vibration    13          0.642              1.825              2.043
 Vibration    14          0.658              1.778              1.796
 Vibration    15          0.670              1.741              1.643
 Vibration    16          0.687              1.691              1.470
 Vibration    17          0.693              1.671              1.409
 Vibration    18          0.707              1.632              1.302
 Vibration    19          0.717              1.605              1.234
 Vibration    20          0.747              1.520              1.052
 Vibration    21          0.758              1.492              1.002
 Vibration    22          0.807              1.364              0.800
 Vibration    23          0.852              1.258              0.667
 Vibration    24          0.882              1.190              0.594
 Vibration    25          0.919              1.111              0.517
 Vibration    26          0.977              0.996              0.422

                           ! Non-Optimized Parameters !
 Normal termination of Gaussian 16 at Fri May 24 08:54:12 2019.
