 Gaussian 16, Revision A.03,
 Gaussian 16:  ES64L-G16RevA.03 25-Dec-2016

 -------------------------------------------------------------------
 #p b3lyp 6-31g* opt freq=noraman scrf=(pcm,solvent=tetrahydrofuran)
 -------------------------------------------------------------------

 -----
 title
 -----
 Symbolic Z-matrix:
 Charge =  1 Multiplicity = 1

 SCF Done:  E(RB3LYP) =  -768.329275384     A.U. after   13 cycles
 Optimization completed.
    -- Stationary point found.
 Normal termination of Gaussian 16 at Fri May 24 08:34:50 2019.

 --------------------------------------------------------------------
 #P Geom=AllCheck Guess=TCheck SCRF=Check GenChk RB3LYP/6-31G(d) Freq
 --------------------------------------------------------------------

 Structure from the checkpoint file:  "/scratch/Gau-161475.chk"
 -----
 title
 -----
 Charge =  1 Multiplicity = 1

                         Standard orientation:
 ---------------------------------------------------------------------
 Center     Atomic      Atomic             Coordinates (Angstroms)
 Number     Number       Type             X           Y           Z
 ---------------------------------------------------------------------
      1          6           0       -0.826097    0.553124   -0.745646
      2          6           0       -1.774600    0.288944    0.443131
      3          6           0       -1.065701   -0.172275    1.678390
      4          6           0        1.111195   -0.417675    0.610026
      5          6           0        0.375934   -0.408857   -0.732319
      6          1           0       -1.630300   -0.336845    2.596097
      7          1           0       -2.325420    1.209301    0.674253
      8          1           0       -1.385379    0.387677   -1.673469
      9          1           0        1.660747   -1.351894    0.726514
     10          1           0        1.096172   -0.072578   -1.489062
     11          8           0        0.139476   -0.525438    1.754068
     12          8           0       -2.641836   -0.815492    0.240360
     13          8           0       -0.324560    1.870333   -0.650000
     14          8           0       -0.136631   -1.694552   -1.019853
     15          6           0        2.035388    0.777386    0.924050
     16          1           0        2.394524    0.692383    1.958548
     17          1           0        1.482975    1.710972    0.808861
     18          8           0        3.095868    0.794474   -0.003296
     19          6           0       -4.032495   -0.561937    0.505844
     20          1           0       -4.555036   -1.483249    0.247179
     21          1           0       -4.206447   -0.327958    1.561935
     22          1           0       -4.392934    0.262996   -0.119186
     23          6           0       -1.134486    2.861347   -1.285447
     24          1           0       -2.138627    2.914717   -0.843877
     25          1           0       -0.627898    3.815546   -1.134269
     26          1           0       -1.225036    2.656667   -2.359376
     27          6           0        0.789962   -2.577396   -1.650950
     28          1           0        0.245346   -3.501563   -1.851323
     29          1           0        1.153955   -2.153182   -2.595669
     30          1           0        1.650041   -2.805393   -1.006650
     31          6           0        4.217559   -0.011670    0.356755
     32          1           0        3.976612   -1.083238    0.364668
     33          1           0        4.982009    0.169843   -0.401004
     34          1           0        4.606204    0.275251    1.342594
 ---------------------------------------------------------------------

 SCF Done:  E(RB3LYP) =  -768.329275384     A.U. after    1 cycles

 The electronic state is 1-A.
 Alpha  occ. eigenvalues --  -19.32347 -19.22166 -19.19663 -19.18823 -19.18684
 Alpha  occ. eigenvalues --  -10.39049 -10.31387 -10.31185 -10.29204 -10.28915
 Alpha  occ. eigenvalues --  -10.27414 -10.26443 -10.25533 -10.25127 -10.24855
 Alpha  occ. eigenvalues --   -1.20951  -1.09920  -1.08074  -1.06942  -1.06620
 Alpha  occ. eigenvalues --   -0.86501  -0.85157  -0.77287  -0.74739  -0.73497
 Alpha  occ. eigenvalues --   -0.71246  -0.69360  -0.67978  -0.66263  -0.61438
 Alpha  occ. eigenvalues --   -0.58915  -0.58366  -0.56657  -0.54013  -0.53486
 Alpha  occ. eigenvalues --   -0.52696  -0.50975  -0.50790  -0.49788  -0.49453
 Alpha  occ. eigenvalues --   -0.48429  -0.47656  -0.47229  -0.45875  -0.45508
 Alpha  occ. eigenvalues --   -0.44868  -0.43151  -0.42603  -0.40815  -0.40056
 Alpha  occ. eigenvalues --   -0.39538  -0.37846  -0.36154  -0.35062  -0.34511
 Alpha  occ. eigenvalues --   -0.32818  -0.30427  -0.29618  -0.28623
 Alpha virt. eigenvalues --   -0.14367   0.00875   0.03569   0.04516   0.05782
 Alpha virt. eigenvalues --    0.07159   0.08466   0.09325   0.09928   0.10990
 Alpha virt. eigenvalues --    0.11526   0.11957   0.12559   0.12998   0.13092

 Mulliken charges:
               1
     1  C    0.105214
     2  C    0.045198
     3  C    0.297529
     4  C    0.054208
     5  C    0.080203
     6  H    0.270183
     7  H    0.224325
     8  H    0.193633
     9  H    0.224402
    10  H    0.195676
    11  O   -0.314337
    12  O   -0.451418
    13  O   -0.485423
    14  O   -0.485333
    15  C   -0.045546
    16  H    0.172998
    17  H    0.199635
    18  O   -0.464854
    19  C   -0.234046
    20  H    0.201267
    21  H    0.178821
    22  H    0.182092
    23  C   -0.225140
    24  H    0.158916
    25  H    0.189318
    26  H    0.171495
    27  C   -0.223546
    28  H    0.185601
    29  H    0.165743
    30  H    0.156635
    31  C   -0.224903
    32  H    0.155265
    33  H    0.183751
    34  H    0.162442
 Sum of Mulliken charges =   1.00000

 Dipole moment (field-independent basis, Debye):
    X=             -3.3770    Y=              0.2909    Z=              3.4963  Tot=              4.8696
 Quadrupole moment (field-independent basis, Debye-Ang):
   XX=            -52.5020   YY=            -78.2478   ZZ=            -72.8736
   XY=            -11.0019   XZ=             -3.3973   YZ=              0.0396

  Exact polarizability: 181.848  -0.540 134.794  -0.757   0.511 129.876
 Approx polarizability: 193.692   3.376 153.699   2.678   0.590 154.220

                      1                      2                      3
                      A                      A                      A
 Frequencies --     45.8367                68.1906                76.9773
 Red. masses --      3.8864                 3.7320                 3.5858
 Frc consts  --      0.0048                 0.0102                 0.0125
 IR Inten    --      3.0548                 1.3580                 0.7805

                      4                      5                      6
                      A                      A                      A
 Frequencies --     87.6479               104.3492               114.3864
 Red. masses --      2.9127                 2.6170                 2.8133
 Frc consts  --      0.0132                 0.0168                 0.0217
 IR Inten    --      0.4325                 8.7320                 6.1481

                      7                      8                      9
                      A                      A                      A
 Frequencies --    116.7408               137.7331               149.0762
 Red. masses --      2.5970                 3.1530                 2.4999
 Frc consts  --      0.0209                 0.0352                 0.0327
 IR Inten    --      4.2191                 2.6169                 4.8613

                     10                     11                     12
                      A                      A                      A
 Frequencies --    173.3909               187.8887               194.8162
 Red. masses --      1.6654                 1.4153                 1.2313
 Frc consts  --      0.0295                 0.0294                 0.0275
 IR Inten    --      1.7892                 0.2873                 0.2517

                     13                     14                     15
                      A                      A                      A
 Frequencies --    207.2462               224.7002               256.3465
 Red. masses --      1.4994                 1.5957                 2.6547
 Frc consts  --      0.0379                 0.0475                 0.1028
 IR Inten    --      3.5900                 5.9622                 3.4191

                     16                     17                     18
                      A                      A                      A
 Frequencies --    295.6172               317.2616               331.8800
 Red. masses --      3.7533                 4.6135                 3.8892
 Frc consts  --      0.1933                 0.2736                 0.2524
 IR Inten    --     28.9949                 8.5714                 3.5622

                     19                     20                     21
                      A                      A                      A
 Frequencies --    359.9357               378.8916               405.5105
 Red. masses --      4.5460                 3.6325                 3.6270
 Frc consts  --      0.3470                 0.3072                 0.3514
 IR Inten    --      3.3226                 9.8433                 3.3475

                     22                     23                     24
                      A                      A                      A
 Frequencies --    453.6370               477.4001               497.5750
 Red. masses --      3.0546                 3.9289                 3.9803
 Frc consts  --      0.3704                 0.5276                 0.5806
 IR Inten    --     27.6200                15.6416                 8.5212

                     25                     26                     27
                      A                      A                      A
 Frequencies --    541.0779               589.5582               638.9223
 Red. masses --      3.8059                 5.5048                 4.7603
 Frc consts  --      0.6565                 1.1273                 1.1449
 IR Inten    --     34.2181                34.6164                22.5219

                     28                     29                     30
                      A                      A                      A
 Frequencies --    755.3029               839.2494               858.8294
 Red. masses --      4.8959                 2.3680                 2.5635
 Frc consts  --      1.6456                 0.9827                 1.1140
 IR Inten    --     43.2482                 4.6346                 2.9380

                     31                     32                     33
                      A                      A                      A
 Frequencies --    929.2239               935.2785               955.1411
 Red. masses --      4.5722                 3.4780                 4.2996
 Frc consts  --      2.3260                 1.7925                 2.3111
 IR Inten    --     42.8470                38.1859                91.6669

                     34                     35                     36
                      A                      A                      A
 Frequencies --    968.2158               998.3075              1032.8502
 Red. masses --      2.2284                 5.4334                 2.4426
 Frc consts  --      1.2308                 3.1905                 1.5352
 IR Inten    --      8.8091                 6.0292                18.3592

                     37                     38                     39
                      A                      A                      A
 Frequencies --   1050.9892              1095.6089              1104.4365
 Red. masses --      3.7525                 2.3724                 2.7694
 Frc consts  --      2.4422                 1.6779                 1.9903
 IR Inten    --      3.7563               103.7581               109.2424

                     40                     41                     42
                      A                      A                      A
 Frequencies --   1114.0155              1123.9386              1141.9407
 Red. masses --      3.4856                 4.2902                 3.3725
 Frc consts  --      2.5487                 3.1931                 2.5911
 IR Inten    --    103.3171               114.1097               120.5663

                     43                     44                     45
                      A                      A                      A
 Frequencies --   1155.7510              1157.9584              1185.0925
 Red. masses --      1.7190                 3.0946                 1.2625
 Frc consts  --      1.3528                 2.4448                 1.0447
 IR Inten    --     95.8399               200.6012                 2.4392

                     46                     47                     48
                      A                      A                      A
 Frequencies --   1187.3855              1189.6903              1192.5742
 Red. masses --      1.2748                 1.2779                 1.2730
 Frc consts  --      1.0590                 1.0656                 1.0667
 IR Inten    --      6.0196                 5.6593                 6.1198

                     49                     50                     51
                      A                      A                      A
 Frequencies --   1211.3533              1220.9460              1225.5278
 Red. masses --      1.4099                 1.6123                 1.5923
 Frc consts  --      1.2189                 1.4161                 1.4091
 IR Inten    --     15.8310                87.1195                74.1993

                     52                     53                     54
                      A                      A                      A
 Frequencies --   1232.6847              1271.6185              1315.6443
 Red. masses --      1.6945                 2.2411                 1.3364
 Frc consts  --      1.5170                 2.1351                 1.3629
 IR Inten    --      6.1104                23.2887                 7.6753

                     55                     56                     57
                      A                      A                      A
 Frequencies --   1331.4925              1339.9845              1350.7513
 Red. masses --      1.2026                 1.2692                 1.2213
 Frc consts  --      1.2562                 1.3427                 1.3129
 IR Inten    --     12.1950                20.1765                 9.8203

                     58                     59                     60
                      A                      A                      A
 Frequencies --   1369.1735              1372.8643              1391.3463
 Red. masses --      1.2443                 1.3172                 1.6821
 Frc consts  --      1.3744                 1.4627                 1.9185
 IR Inten    --     33.4149                 6.2879                42.2496

                     61                     62                     63
                      A                      A                      A
 Frequencies --   1420.6492              1434.0315              1450.4879
 Red. masses --      1.2388                 1.5149                 1.2933
 Frc consts  --      1.4731                 1.8354                 1.6031
 IR Inten    --      6.1966                16.0078                39.4460

                     64                     65                     66
                      A                      A                      A
 Frequencies --   1493.7077              1497.5769              1499.3963
 Red. masses --      1.1173                 1.1149                 1.1201
 Frc consts  --      1.4687                 1.4732                 1.4836
 IR Inten    --     15.7565                 2.0098                 0.5138

                     67                     68                     69
                      A                      A                      A
 Frequencies --   1501.1223              1513.6646              1515.9130
 Red. masses --      1.1174                 1.0557                 1.0610
 Frc consts  --      1.4835                 1.4251                 1.4365
 IR Inten    --      3.1900                10.0689                10.7992

                     70                     71                     72
                      A                      A                      A
 Frequencies --   1516.5148              1521.1698              1524.9130
 Red. masses --      1.0582                 1.0688                 1.0653
 Frc consts  --      1.4338                 1.4571                 1.4596
 IR Inten    --     12.0847                 1.1388                30.3081

                     73                     74                     75
                      A                      A                      A
 Frequencies --   1525.8854              1529.1940              1532.3100
 Red. masses --      1.0657                 1.0590                 1.0890
 Frc consts  --      1.4620                 1.4591                 1.5064
 IR Inten    --      4.9088                20.8984                11.7922

                     76                     77                     78
                      A                      A                      A
 Frequencies --   1535.3842              1638.0280              3026.0161
 Red. masses --      1.0628                 5.2299                 1.0353
 Frc consts  --      1.4762                 8.2677                 5.5856
 IR Inten    --     16.9332               322.0113                11.4332

                     79                     80                     81
                      A                      A                      A
 Frequencies --   3028.5520              3031.6100              3046.0291
 Red. masses --      1.0349                 1.0355                 1.0679
 Frc consts  --      5.5925                 5.6070                 5.8380
 IR Inten    --    114.5333                35.5788                45.0766

                     82                     83                     84
                      A                      A                      A
 Frequencies --   3052.4714              3067.1644              3072.6459
 Red. masses --      1.0324                 1.0846                 1.0831
 Frc consts  --      5.6677                 6.0118                 6.0247
 IR Inten    --     46.7135                10.1341                 3.0818

                     85                     86                     87
                      A                      A                      A
 Frequencies --   3083.0515              3084.9162              3087.2943
 Red. masses --      1.0867                 1.1060                 1.1060
 Frc consts  --      6.0857                 6.2012                 6.2109
 IR Inten    --     28.9214                75.4032                35.9430

                     88                     89                     90
                      A                      A                      A
 Frequencies --   3093.9633              3123.3278              3149.0599
 Red. masses --      1.1054                 1.1075                 1.0910
 Frc consts  --      6.2344                 6.3653                 6.3745
 IR Inten    --     47.5491                33.0731                 0.0722

                     91                     92                     93
                      A                      A                      A
 Frequencies --   3160.7295              3164.2698              3164.6569
 Red. masses --      1.0993                 1.0998                 1.0947
 Frc consts  --      6.4703                 6.4877                 6.4594
 IR Inten    --     26.9932                25.7117                 5.2485

                     94                     95                     96
                      A                      A                      A
 Frequencies --   3170.4487              3183.7840              3206.2312
 Red. masses --      1.1009                 1.1032                 1.0937
 Frc consts  --      6.5199                 6.5885                 6.6242
 IR Inten    --     20.2586                12.8067                 0.4516

 - Thermochemistry -
 -------------------
 Temperature   298.150 Kelvin.  Pressure   1.00000 Atm.
 Atom     1 has atomic number  6 and mass  12.00000

 Molecular mass:   219.12325 amu.
 Principal axes and moments of inertia in atomic units:
                           1         2         3
     Eigenvalues --  2236.366664334.299524888.86483
           X            0.99964  -0.02700   0.00071
           Y            0.02699   0.99956   0.01252
           Z           -0.00105  -0.01250   0.99992
 This molecule is an asymmetric top.
 Rotational symmetry number  1.
 Warning -- assumption of classical behavior for rotation
           may cause significant error
 Rotational temperatures (Kelvin)      0.03873     0.01998     0.01772
 Rotational constants (GHZ):           0.80700     0.41639     0.36915
 Zero-point vibrational energy     775682.2 (Joules/Mol)
                                  185.39249 (Kcal/Mol)
 Warning -- explicit consideration of  26 degrees of freedom as
           vibrations may cause significant error
 Vibrational temperatures:     65.95    98.11   110.75   126.11   150.14
          (Kelvin)            164.58   167.96   198.17   214.49   249.47
                              270.33   280.30   298.18   323.29   368.83
                              425.33   456.47   477.50   517.87   545.14
                              583.44   652.68   686.87   715.90   778.49
                              848.24   919.27  1086.71  1207.49  1235.66
                             1336.95  1345.66  1374.23  1393.05  1436.34
                             1486.04  1512.14  1576.34  1589.04  1602.82
                             1617.10  1643.00  1662.87  1666.04  1705.08
                             1708.38  1711.70  1715.85  1742.87  1756.67
                             1763.26  1773.56  1829.58  1892.92  1915.72
                             1927.94  1943.43  1969.94  1975.25  2001.84
                             2044.00  2063.25  2086.93  2149.11  2154.68
                             2157.30  2159.78  2177.83  2181.06  2181.93
                             2188.62  2194.01  2195.41  2200.17  2204.65
                             2209.08  2356.76  4353.76  4357.41  4361.81
                             4382.56  4391.83  4412.97  4420.85  4435.82
                             4438.51  4441.93  4451.52  4493.77  4530.79
                             4547.58  4552.68  4553.24  4561.57  4580.76
                             4613.05

 Zero-point correction=                           0.295442 (Hartree/Particle)
 Thermal correction to Energy=                    0.312573
 Thermal correction to Enthalpy=                  0.313518
 Thermal correction to Gibbs Free Energy=         0.250796
 Sum of electronic and zero-point Energies=           -768.033834
 Sum of electronic and thermal Energies=              -768.016702
 Sum of electronic and thermal Enthalpies=            -768.015758
 Sum of electronic and thermal Free Energies=         -768.078479

                     E (Thermal)             CV                S
                      KCal/Mol        Cal/Mol-Kelvin    Cal/Mol-Kelvin
 Total                  196.143             61.348            132.009
 Electronic               0.000              0.000              0.000
 Translational            0.889              2.981             42.056
 Rotational               0.889              2.981             32.227
 Vibrational            194.365             55.387             57.725
 Vibration     1          0.595              1.979              4.989
 Vibration     2          0.598              1.969              4.205
 Vibration     3          0.599              1.965              3.967
 Vibration     4          0.601              1.958              3.712
 Vibration     5          0.605              1.946              3.371
 Vibration     6          0.607              1.938              3.193
 Vibration     7          0.608              1.935              3.154
 Vibration     8          0.614              1.916              2.835
 Vibration     9          0.618              1.904              2.684
 Vibration    10          0.627              1.875              2.398
 Vibration    11          0.633              1.856              2.249
 Vibration    12          0.635              1.847              2.182
 Vibration    13          0.641              1.830              2.068
 Vibration    14          0.649              1.803              1.921
 Vibration    15          0.666              1.752              1.687
 Vibration    16          0.690              1.682              1.442
 Vibration    17          0.704              1.641              1.324
 Vibration    18          0.714              1.612              1.251
 Vibration    19          0.734              1.555              1.122
 Vibration    20          0.749              1.515              1.044
 Vibration    21          0.770              1.458              0.943
 Vibration    22          0.812              1.353              0.785
 Vibration    23          0.834              1.300              0.717
 Vibration    24          0.853              1.255              0.664
 Vibration    25          0.896              1.159              0.563
 Vibration    26          0.947              1.054              0.468

 Optimization completed.
    -- Stationary point found.
 Normal termination of Gaussian 16 at Fri May 24 08:53:08 2019.
