 Gaussian 16, Revision A.03,
 Gaussian 16:  ES64L-G16RevA.03 25-Dec-2016

 -------------------------------------------------------------------
 #p b3lyp 6-31g* opt freq=noraman scrf=(pcm,solvent=tetrahydrofuran)
 -------------------------------------------------------------------

 -----
 title
 -----
 Symbolic Z-matrix:
 Charge =  1 Multiplicity = 1

 SCF Done:  E(RB3LYP) =  -768.321484229     A.U. after   14 cycles
 Optimization completed.
    -- Stationary point found.
 Normal termination of Gaussian 16 at Fri May 24 08:34:10 2019.

 --------------------------------------------------------------------
 #P Geom=AllCheck Guess=TCheck SCRF=Check GenChk RB3LYP/6-31G(d) Freq
 --------------------------------------------------------------------

 Structure from the checkpoint file:  "/scratch/Gau-7859.chk"
 -----
 title
 -----
 Charge =  1 Multiplicity = 1

                         Standard orientation:
 ---------------------------------------------------------------------
 Center     Atomic      Atomic             Coordinates (Angstroms)
 Number     Number       Type             X           Y           Z
 ---------------------------------------------------------------------
      1          6           0        1.009851    0.607824    0.021541
      2          6           0        1.733490   -0.728836   -0.271920
      3          6           0        0.817161   -1.915561   -0.234970
      4          6           0       -1.214980   -0.595675   -0.047303
      5          6           0       -0.375967    0.545262   -0.655165
      6          1           0        1.237401   -2.921862   -0.235738
      7          1           0        2.177809   -0.664764   -1.278112
      8          1           0        0.904589    0.696980    1.113225
      9          1           0       -1.372680   -0.474686    1.026343
     10          1           0       -0.228011    0.321119   -1.719926
     11          8           0       -0.432343   -1.886250   -0.104439
     12          8           0        2.695532   -1.020145    0.723769
     13          8           0        1.701141    1.703106   -0.510482
     14          8           0       -1.106317    1.741585   -0.652370
     15          6           0       -2.558920   -0.863807   -0.746887
     16          1           0       -2.771791   -1.941209   -0.710803
     17          1           0       -2.499152   -0.555950   -1.794453
     18          8           0       -3.581665   -0.106023   -0.143477
     19          6           0        3.899256   -1.648295    0.250923
     20          1           0        4.375875   -1.030884   -0.519169
     21          1           0        4.551141   -1.733628    1.120504
     22          1           0        3.702349   -2.648150   -0.152921
     23          6           0        2.802626    2.177661    0.269111
     24          1           0        3.645364    1.477881    0.255614
     25          1           0        3.109489    3.121281   -0.185084
     26          1           0        2.501123    2.354838    1.309588
     27          6           0       -1.282438    2.416233    0.596975
     28          1           0       -1.904824    3.283038    0.370136
     29          1           0       -1.802816    1.796577    1.336215
     30          1           0       -0.326690    2.761196    1.004653
     31          6           0       -4.216931   -0.755633    0.955108
     32          1           0       -4.680541   -1.699993    0.639447
     33          1           0       -3.518455   -0.961824    1.778631
     34          1           0       -4.989845   -0.073188    1.313355
 ---------------------------------------------------------------------

 SCF Done:  E(RB3LYP) =  -768.321484229     A.U. after    1 cycles

 The electronic state is 1-A.
 Alpha  occ. eigenvalues --  -19.33346 -19.22273 -19.19252 -19.19067 -19.18438
 Alpha  occ. eigenvalues --  -10.39903 -10.31933 -10.31913 -10.29672 -10.29514
 Alpha  occ. eigenvalues --  -10.27694 -10.26663 -10.25016 -10.24972 -10.24806
 Alpha  occ. eigenvalues --   -1.21887  -1.10269  -1.08323  -1.06713  -1.06240
 Alpha  occ. eigenvalues --   -0.87054  -0.85958  -0.77299  -0.75370  -0.73652
 Alpha  occ. eigenvalues --   -0.71905  -0.69037  -0.67861  -0.65598  -0.62775
 Alpha  occ. eigenvalues --   -0.60428  -0.59082  -0.55964  -0.55403  -0.53280
 Alpha  occ. eigenvalues --   -0.52317  -0.51618  -0.51155  -0.50413  -0.49391
 Alpha  occ. eigenvalues --   -0.48681  -0.48086  -0.46247  -0.46124  -0.45306
 Alpha  occ. eigenvalues --   -0.43954  -0.43759  -0.42835  -0.41283  -0.40708
 Alpha  occ. eigenvalues --   -0.39432  -0.38016  -0.36336  -0.34859  -0.34276
 Alpha  occ. eigenvalues --   -0.32905  -0.30197  -0.29511  -0.28712
 Alpha virt. eigenvalues --   -0.15399  -0.00736   0.04513   0.04667   0.05688
 Alpha virt. eigenvalues --    0.06727   0.07115   0.08577   0.09449   0.10423
 Alpha virt. eigenvalues --    0.10990   0.11464   0.12384   0.12836   0.13215

 Mulliken charges:
               1
     1  C    0.115919
     2  C    0.034744
     3  C    0.301947
     4  C    0.063126
     5  C    0.092762
     6  H    0.274656
     7  H    0.236693
     8  H    0.176222
     9  H    0.232293
    10  H    0.190501
    11  O   -0.317804
    12  O   -0.467266
    13  O   -0.486305
    14  O   -0.468277
    15  C   -0.052862
    16  H    0.177733
    17  H    0.193080
    18  O   -0.461169
    19  C   -0.238374
    20  H    0.183864
    21  H    0.202673
    22  H    0.177150
    23  C   -0.222868
    24  H    0.163849
    25  H    0.183487
    26  H    0.161494
    27  C   -0.235117
    28  H    0.188987
    29  H    0.159461
    30  H    0.168269
    31  C   -0.224376
    32  H    0.161570
    33  H    0.150215
    34  H    0.183719
 Sum of Mulliken charges =   1.00000

 Dipole moment (field-independent basis, Debye):
    X=              4.0723    Y=             -6.6933    Z=              1.1698  Tot=              7.9216
 Quadrupole moment (field-independent basis, Debye-Ang):
   XX=            -57.3729   YY=            -69.5668   ZZ=            -84.2238
   XY=             -2.3441   XZ=             -6.8074   YZ=              8.2719

  Exact polarizability: 181.758  -4.884 145.259  -1.566   4.557 115.100
 Approx polarizability: 188.463  -4.188 164.225   1.586   1.816 146.033

                      1                      2                      3
                      A                      A                      A
 Frequencies --     31.1888                51.3771                68.7107
 Red. masses --      4.5638                 3.2852                 3.7903
 Frc consts  --      0.0026                 0.0051                 0.0105
 IR Inten    --      2.5714                 0.2544                 1.1399

                      4                      5                      6
                      A                      A                      A
 Frequencies --     87.6978               101.4653               111.7155
 Red. masses --      2.1081                 2.2296                 2.4025
 Frc consts  --      0.0096                 0.0135                 0.0177
 IR Inten    --      4.8881                 3.4945                 1.0189

                      7                      8                      9
                      A                      A                      A
 Frequencies --    134.1411               145.4077               162.4779
 Red. masses --      2.6506                 1.4514                 1.7220
 Frc consts  --      0.0281                 0.0181                 0.0268
 IR Inten    --      5.0962                 0.3035                 4.1958

                     10                     11                     12
                      A                      A                      A
 Frequencies --    171.2274               180.4170               181.0971
 Red. masses --      1.4685                 1.6240                 1.5063
 Frc consts  --      0.0254                 0.0311                 0.0291
 IR Inten    --      2.3321                 1.6169                 0.3293

                     13                     14                     15
                      A                      A                      A
 Frequencies --    201.3510               226.5723               244.4745
 Red. masses --      2.3041                 2.9591                 3.8143
 Frc consts  --      0.0550                 0.0895                 0.1343
 IR Inten    --     10.8451                 9.7130                 2.6150

                     16                     17                     18
                      A                      A                      A
 Frequencies --    270.2525               299.5765               323.9165
 Red. masses --      3.0354                 4.6133                 4.8846
 Frc consts  --      0.1306                 0.2439                 0.3020
 IR Inten    --      2.7403                18.2520                 9.9489

                     19                     20                     21
                      A                      A                      A
 Frequencies --    339.9545               386.2217               421.9980
 Red. masses --      3.4587                 3.0456                 4.8781
 Frc consts  --      0.2355                 0.2677                 0.5118
 IR Inten    --      1.3507                 3.7994                15.5496

                     22                     23                     24
                      A                      A                      A
 Frequencies --    449.5759               459.9206               495.6258
 Red. masses --      3.7350                 3.2643                 4.2694
 Frc consts  --      0.4448                 0.4068                 0.6179
 IR Inten    --     12.3495                 6.1398                12.3006

                     25                     26                     27
                      A                      A                      A
 Frequencies --    518.4418               551.1744               627.4239
 Red. masses --      3.7181                 3.4067                 3.1839
 Frc consts  --      0.5888                 0.6098                 0.7385
 IR Inten    --     33.7839                14.1231                11.0894

                     28                     29                     30
                      A                      A                      A
 Frequencies --    745.6275               791.5219               858.1661
 Red. masses --      5.0815                 4.9714                 1.9695
 Frc consts  --      1.6645                 1.8351                 0.8546
 IR Inten    --     42.5234                84.6019                 6.7981

                     31                     32                     33
                      A                      A                      A
 Frequencies --    912.8127               930.2927               964.8434
 Red. masses --      3.6166                 4.1057                 4.5524
 Frc consts  --      1.7754                 2.0935                 2.4969
 IR Inten    --     34.6614                76.0482                23.5578

                     34                     35                     36
                      A                      A                      A
 Frequencies --    981.3511              1004.1704              1049.3262
 Red. masses --      5.1419                 2.5336                 2.4563
 Frc consts  --      2.9176                 1.5052                 1.5935
 IR Inten    --      2.2053                20.2810                12.2183

                     37                     38                     39
                      A                      A                      A
 Frequencies --   1060.6106              1087.3887              1109.2995
 Red. masses --      4.1294                 3.8370                 2.7138
 Frc consts  --      2.7369                 2.6731                 1.9675
 IR Inten    --     19.1439               147.2325                94.8438

                     40                     41                     42
                      A                      A                      A
 Frequencies --   1125.8039              1142.8899              1154.0927
 Red. masses --      2.5411                 3.0176                 3.5113
 Frc consts  --      1.8975                 2.3223                 2.7555
 IR Inten    --     10.1671                50.5145               179.4918

                     43                     44                     45
                      A                      A                      A
 Frequencies --   1168.8705              1174.8213              1181.0418
 Red. masses --      2.8865                 2.0707                 1.6907
 Frc consts  --      2.3236                 1.6839                 1.3895
 IR Inten    --     86.8763                93.6950                55.2668

                     46                     47                     48
                      A                      A                      A
 Frequencies --   1187.0218              1187.4527              1191.2548
 Red. masses --      1.2973                 1.2857                 1.2610
 Frc consts  --      1.0769                 1.0681                 1.0544
 IR Inten    --     22.3643                 9.4767                 8.9078

                     49                     50                     51
                      A                      A                      A
 Frequencies --   1213.7595              1222.4459              1231.5738
 Red. masses --      1.6514                 1.6822                 1.6490
 Frc consts  --      1.4334                 1.4811                 1.4737
 IR Inten    --     28.9048                33.1588                60.6763

                     52                     53                     54
                      A                      A                      A
 Frequencies --   1240.7814              1266.6040              1301.3474
 Red. masses --      1.7290                 1.5218                 1.5381
 Frc consts  --      1.5683                 1.4384                 1.5347
 IR Inten    --     44.8516                19.2994                56.4262

                     55                     56                     57
                      A                      A                      A
 Frequencies --   1310.2114              1330.8004              1353.1894
 Red. masses --      1.2137                 1.3166                 1.1944
 Frc consts  --      1.2275                 1.3738                 1.2886
 IR Inten    --     26.2345                 1.6980                 2.2692

                     58                     59                     60
                      A                      A                      A
 Frequencies --   1363.7269              1402.3146              1422.0937
 Red. masses --      1.2866                 1.3688                 1.2758
 Frc consts  --      1.4098                 1.5859                 1.5202
 IR Inten    --      4.5311                 4.9830                16.4271

                     61                     62                     63
                      A                      A                      A
 Frequencies --   1428.4660              1443.2187              1469.3978
 Red. masses --      1.2769                 1.2694                 1.1688
 Frc consts  --      1.5351                 1.5578                 1.4869
 IR Inten    --     12.7890                61.3038                 9.6346

                     64                     65                     66
                      A                      A                      A
 Frequencies --   1492.9358              1495.8064              1500.4624
 Red. masses --      1.1158                 1.1156                 1.1135
 Frc consts  --      1.4653                 1.4707                 1.4771
 IR Inten    --      7.3908                 0.3868                 5.7168

                     67                     68                     69
                      A                      A                      A
 Frequencies --   1501.8080              1510.9940              1512.1107
 Red. masses --      1.1434                 1.0559                 1.0533
 Frc consts  --      1.5194                 1.4204                 1.4189
 IR Inten    --      0.6330                11.4054                10.9516

                     70                     71                     72
                      A                      A                      A
 Frequencies --   1515.3904              1518.0066              1519.0825
 Red. masses --      1.0759                 1.0661                 1.0654
 Frc consts  --      1.4557                 1.4475                 1.4486
 IR Inten    --      8.6136                 5.6329                 7.1627

                     73                     74                     75
                      A                      A                      A
 Frequencies --   1524.9377              1528.3077              1529.3597
 Red. masses --      1.0560                 1.0587                 1.0748
 Frc consts  --      1.4469                 1.4570                 1.4811
 IR Inten    --     17.8932                13.0353                15.5133

                     76                     77                     78
                      A                      A                      A
 Frequencies --   1536.2877              1632.7748              3015.3173
 Red. masses --      1.0769                 6.4838                 1.0816
 Frc consts  --      1.4975                10.1843                 5.7939
 IR Inten    --     11.9470               362.4818                13.5759

                     79                     80                     81
                      A                      A                      A
 Frequencies --   3017.6132              3023.9037              3039.5567
 Red. masses --      1.0370                 1.0832                 1.0654
 Frc consts  --      5.5638                 5.8356                 5.7992
 IR Inten    --     50.3070                 9.5761                39.8740

                     82                     83                     84
                      A                      A                      A
 Frequencies --   3041.3148              3048.4942              3055.3956
 Red. masses --      1.0354                 1.0330                 1.0357
 Frc consts  --      5.6425                 5.6560                 5.6968
 IR Inten    --     43.6172                42.0640                62.5556

                     85                     86                     87
                      A                      A                      A
 Frequencies --   3063.5549              3074.8237              3108.1363
 Red. masses --      1.0816                 1.1053                 1.1037
 Frc consts  --      5.9810                 6.1568                 6.2819
 IR Inten    --      9.5727                70.7442                56.9154

                     88                     89                     90
                      A                      A                      A
 Frequencies --   3116.1455              3122.2380              3123.8098
 Red. masses --      1.1078                 1.1004                 1.0996
 Frc consts  --      6.3381                 6.3203                 6.3221
 IR Inten    --     35.3697                42.3880                14.4810

                     91                     92                     93
                      A                      A                      A
 Frequencies --   3134.4322              3160.1512              3165.5998
 Red. masses --      1.0916                 1.0994                 1.1025
 Frc consts  --      6.3186                 6.4685                 6.5092
 IR Inten    --     15.3047                26.3272                25.8966

                     94                     95                     96
                      A                      A                      A
 Frequencies --   3169.1803              3184.9699              3202.1570
 Red. masses --      1.1024                 1.1025                 1.0935
 Frc consts  --      6.5238                 6.5892                 6.6065
 IR Inten    --     22.9575                12.9088                 0.6703

 - Thermochemistry -
 -------------------
 Temperature   298.150 Kelvin.  Pressure   1.00000 Atm.
 Atom     1 has atomic number  6 and mass  12.00000

 Molecular mass:   219.12325 amu.
 Principal axes and moments of inertia in atomic units:
                           1         2         3
     Eigenvalues --  1954.987694642.045856081.48445
           X            0.99996   0.00426  -0.00846
           Y           -0.00407   0.99975   0.02219
           Z            0.00856  -0.02216   0.99972
 This molecule is an asymmetric top.
 Rotational symmetry number  1.
 Warning -- assumption of classical behavior for rotation
           may cause significant error
 Rotational temperatures (Kelvin)      0.04430     0.01866     0.01424
 Rotational constants (GHZ):           0.92315     0.38878     0.29676
 Zero-point vibrational energy     774205.5 (Joules/Mol)
                                  185.03956 (Kcal/Mol)
 Warning -- explicit consideration of  26 degrees of freedom as
           vibrations may cause significant error
 Vibrational temperatures:     44.87    73.92    98.86   126.18   145.99
          (Kelvin)            160.73   193.00   209.21   233.77   246.36
                              259.58   260.56   289.70   325.99   351.74
                              388.83   431.02   466.04   489.12   555.69
                              607.16   646.84   661.72   713.09   745.92
                              793.02   902.72  1072.79  1138.82  1234.71
                             1313.33  1338.48  1388.19  1411.95  1444.78
                             1509.75  1525.98  1564.51  1596.03  1619.78
                             1644.36  1660.48  1681.74  1690.31  1699.26
                             1707.86  1708.48  1713.95  1746.33  1758.83
                             1771.96  1785.21  1822.36  1872.35  1885.10
                             1914.72  1946.94  1962.10  2017.62  2046.08
                             2055.24  2076.47  2114.14  2148.00  2152.13
                             2158.83  2160.77  2173.98  2175.59  2180.31
                             2184.07  2185.62  2194.05  2198.89  2200.41
                             2210.38  2349.20  4338.37  4341.67  4350.72
                             4373.24  4375.77  4386.10  4396.03  4407.77
                             4423.99  4471.91  4483.44  4492.20  4494.47
                             4509.75  4546.75  4554.59  4559.74  4582.46
                             4607.19

 Zero-point correction=                           0.294879 (Hartree/Particle)
 Thermal correction to Energy=                    0.312230
 Thermal correction to Enthalpy=                  0.313174
 Thermal correction to Gibbs Free Energy=         0.249436
 Sum of electronic and zero-point Energies=           -768.026605
 Sum of electronic and thermal Energies=              -768.009255
 Sum of electronic and thermal Enthalpies=            -768.008310
 Sum of electronic and thermal Free Energies=         -768.072048

                     E (Thermal)             CV                S
                      KCal/Mol        Cal/Mol-Kelvin    Cal/Mol-Kelvin
 Total                  195.927             61.684            134.147
 Electronic               0.000              0.000              0.000
 Translational            0.889              2.981             42.056
 Rotational               0.889              2.981             32.379
 Vibrational            194.150             55.722             59.712
 Vibration     1          0.594              1.983              5.752
 Vibration     2          0.596              1.977              4.764
 Vibration     3          0.598              1.969              4.190
 Vibration     4          0.601              1.958              3.711
 Vibration     5          0.604              1.948              3.426
 Vibration     6          0.607              1.940              3.239
 Vibration     7          0.613              1.919              2.886
 Vibration     8          0.617              1.908              2.731
 Vibration     9          0.623              1.888              2.521
 Vibration    10          0.626              1.878              2.422
 Vibration    11          0.629              1.866              2.324
 Vibration    12          0.630              1.865              2.317
 Vibration    13          0.638              1.838              2.121
 Vibration    14          0.650              1.801              1.906
 Vibration    15          0.660              1.772              1.770
 Vibration    16          0.674              1.728              1.595
 Vibration    17          0.692              1.674              1.419
 Vibration    18          0.708              1.628              1.290
 Vibration    19          0.720              1.596              1.212
 Vibration    20          0.755              1.500              1.015
 Vibration    21          0.784              1.422              0.885
 Vibration    22          0.808              1.362              0.797
 Vibration    23          0.818              1.339              0.766
 Vibration    24          0.851              1.260              0.669
 Vibration    25          0.873              1.209              0.614
 Vibration    26          0.906              1.137              0.542

                           ! Non-Optimized Parameters !
 Normal termination of Gaussian 16 at Fri May 24 08:52:45 2019.
