 Gaussian 16, Revision A.03,
 Gaussian 16:  ES64L-G16RevA.03 25-Dec-2016

 -------------------------------------------------------------------
 #p b3lyp 6-31g* opt freq=noraman scrf=(pcm,solvent=tetrahydrofuran)
 -------------------------------------------------------------------

 -----
 title
 -----
 Symbolic Z-matrix:
 Charge =  1 Multiplicity = 1

 SCF Done:  E(RB3LYP) =  -768.324790125     A.U. after   14 cycles
 Optimization completed.
    -- Stationary point found.
 Normal termination of Gaussian 16 at Fri May 24 08:34:40 2019.

 --------------------------------------------------------------------
 #P Geom=AllCheck Guess=TCheck SCRF=Check GenChk RB3LYP/6-31G(d) Freq
 --------------------------------------------------------------------

 Structure from the checkpoint file:  "/scratch/Gau-5298.chk"
 -----
 title
 -----
 Charge =  1 Multiplicity = 1

                         Standard orientation:
 ---------------------------------------------------------------------
 Center     Atomic      Atomic             Coordinates (Angstroms)
 Number     Number       Type             X           Y           Z
 ---------------------------------------------------------------------
      1          6           0       -1.205847    0.324818   -0.461501
      2          6           0       -1.497985   -1.077201    0.132027
      3          6           0       -0.312791   -1.978747    0.080456
      4          6           0        1.291830   -0.196040   -0.374244
      5          6           0        0.194779    0.826963   -0.038382
      6          1           0       -0.459282   -3.054449    0.189567
      7          1           0       -1.694117   -0.984810    1.218955
      8          1           0       -1.197526    0.217888   -1.550737
      9          1           0        1.468659   -0.218502   -1.451313
     10          1           0        0.220873    1.044256    1.038693
     11          8           0        0.875983   -1.622876   -0.093016
     12          8           0       -2.522696   -1.772953   -0.524667
     13          8           0       -2.239522    1.250637   -0.206123
     14          8           0        0.577146    1.957575   -0.791475
     15          6           0        2.596256    0.005667    0.369775
     16          1           0        2.455873   -0.193509    1.444832
     17          1           0        2.865481    1.066907    0.254785
     18          8           0        3.559047   -0.846574   -0.197028
     19          6           0       -3.833467   -1.655150    0.048614
     20          1           0       -4.466266   -2.339106   -0.518029
     21          1           0       -3.829890   -1.953659    1.103902
     22          1           0       -4.211660   -0.633845   -0.055540
     23          6           0       -2.561986    1.555505    1.153849
     24          1           0       -3.020326    0.703107    1.670696
     25          1           0       -1.694835    1.898204    1.728800
     26          1           0       -3.293476    2.363385    1.105039
     27          6           0        0.282696    3.233571   -0.214239
     28          1           0        0.684552    3.308428    0.804780
     29          1           0       -0.793833    3.427043   -0.205038
     30          1           0        0.778737    3.969517   -0.849428
     31          6           0        4.828558   -0.737381    0.436055
     32          1           0        4.769029   -1.011073    1.499099
     33          1           0        5.496525   -1.430818   -0.078171
     34          1           0        5.229562    0.282531    0.353116
 ---------------------------------------------------------------------

 SCF Done:  E(RB3LYP) =  -768.324790125     A.U. after    1 cycles

 The electronic state is 1-A.
 Alpha  occ. eigenvalues --  -19.33118 -19.20917 -19.19825 -19.19481 -19.18178
 Alpha  occ. eigenvalues --  -10.39851 -10.32188 -10.32063 -10.29983 -10.29513
 Alpha  occ. eigenvalues --  -10.27768 -10.25909 -10.25840 -10.25123 -10.24562
 Alpha  occ. eigenvalues --   -1.21816  -1.09744  -1.08311  -1.06752  -1.06537
 Alpha  occ. eigenvalues --   -0.87523  -0.86005  -0.77820  -0.75218  -0.73926
 Alpha  occ. eigenvalues --   -0.71490  -0.68924  -0.68051  -0.65511  -0.62682
 Alpha  occ. eigenvalues --   -0.60810  -0.58949  -0.55777  -0.54927  -0.53808
 Alpha  occ. eigenvalues --   -0.52946  -0.51668  -0.50949  -0.50202  -0.49370
 Alpha  occ. eigenvalues --   -0.48562  -0.47818  -0.46677  -0.45812  -0.45485
 Alpha  occ. eigenvalues --   -0.44729  -0.42772  -0.42144  -0.41892  -0.40533
 Alpha  occ. eigenvalues --   -0.40284  -0.37103  -0.35948  -0.35448  -0.35259
 Alpha  occ. eigenvalues --   -0.32837  -0.31445  -0.28900  -0.27963
 Alpha virt. eigenvalues --   -0.15296   0.00039   0.04466   0.04882   0.06159
 Alpha virt. eigenvalues --    0.06947   0.07549   0.09398   0.09499   0.10676
 Alpha virt. eigenvalues --    0.11052   0.11351   0.12026   0.12157   0.13083

 Mulliken charges:
               1
     1  C    0.140949
     2  C    0.019016
     3  C    0.306855
     4  C    0.065238
     5  C    0.064245
     6  H    0.280209
     7  H    0.231473
     8  H    0.197662
     9  H    0.246542
    10  H    0.174911
    11  O   -0.304777
    12  O   -0.474569
    13  O   -0.479299
    14  O   -0.481410
    15  C   -0.021720
    16  H    0.164936
    17  H    0.184320
    18  O   -0.480636
    19  C   -0.232924
    20  H    0.194384
    21  H    0.170748
    22  H    0.183711
    23  C   -0.245622
    24  H    0.161310
    25  H    0.165494
    26  H    0.197116
    27  C   -0.226773
    28  H    0.160557
    29  H    0.176084
    30  H    0.185295
    31  C   -0.211855
    32  H    0.153516
    33  H    0.178982
    34  H    0.156030
 Sum of Mulliken charges =   1.00000

 Dipole moment (field-independent basis, Debye):
    X=             -1.2574    Y=             -2.2716    Z=              4.7738  Tot=              5.4341
 Quadrupole moment (field-independent basis, Debye-Ang):
   XX=            -59.9351   YY=            -69.0873   ZZ=            -84.2848
   XY=              6.0922   XZ=             -2.6298   YZ=              0.8966

  Exact polarizability: 172.932   2.064 150.963  -4.548   0.480 114.274
 Approx polarizability: 180.165  -1.239 167.554  -4.952   0.573 144.788

                      1                      2                      3
                      A                      A                      A
 Frequencies --     35.3441                65.9203                73.5604
 Red. masses --      3.8499                 3.3624                 3.7631
 Frc consts  --      0.0028                 0.0086                 0.0120
 IR Inten    --      1.3217                 1.4005                 0.8648

                      4                      5                      6
                      A                      A                      A
 Frequencies --     86.5708                91.6449                99.9546
 Red. masses --      2.7074                 2.2663                 2.8860
 Frc consts  --      0.0120                 0.0112                 0.0170
 IR Inten    --      0.7202                13.6080                 3.6540

                      7                      8                      9
                      A                      A                      A
 Frequencies --    138.7681               159.4613               170.9067
 Red. masses --      2.1848                 2.0489                 2.3597
 Frc consts  --      0.0248                 0.0307                 0.0406
 IR Inten    --      7.0791                 0.8008                 4.8377

                     10                     11                     12
                      A                      A                      A
 Frequencies --    190.4590               197.6707               209.1749
 Red. masses --      2.1141                 1.3975                 1.2228
 Frc consts  --      0.0452                 0.0322                 0.0315
 IR Inten    --      4.6813                 1.2204                 1.0720

                     13                     14                     15
                      A                      A                      A
 Frequencies --    217.3320               244.4674               252.3389
 Red. masses --      1.4043                 2.1065                 3.0601
 Frc consts  --      0.0391                 0.0742                 0.1148
 IR Inten    --      2.0303                 8.6443                 3.9634

                     16                     17                     18
                      A                      A                      A
 Frequencies --    279.4072               287.0880               301.5482
 Red. masses --      4.3807                 3.5503                 4.9600
 Frc consts  --      0.2015                 0.1724                 0.2657
 IR Inten    --     12.7416                 6.6060                 7.2468

                     19                     20                     21
                      A                      A                      A
 Frequencies --    320.5493               376.4625               401.4346
 Red. masses --      3.6916                 3.3919                 4.4068
 Frc consts  --      0.2235                 0.2832                 0.4184
 IR Inten    --      2.5185                 0.9784                 3.7253

                     22                     23                     24
                      A                      A                      A
 Frequencies --    419.1720               460.0177               532.0514
 Red. masses --      4.0925                 4.0926                 3.8473
 Frc consts  --      0.4237                 0.5103                 0.6417
 IR Inten    --      4.4642                 4.3132                19.5129

                     25                     26                     27
                      A                      A                      A
 Frequencies --    543.7213               558.7433               614.6725
 Red. masses --      3.5513                 3.2197                 3.5567
 Frc consts  --      0.6186                 0.5922                 0.7917
 IR Inten    --     30.3339                 6.4072                17.4222

                     28                     29                     30
                      A                      A                      A
 Frequencies --    719.9136               745.9755               853.0868
 Red. masses --      4.3747                 3.7989                 2.0052
 Frc consts  --      1.3359                 1.2455                 0.8598
 IR Inten    --     65.8490                79.0442                 4.0536

                     31                     32                     33
                      A                      A                      A
 Frequencies --    931.1614               955.6183               980.4995
 Red. masses --      4.8755                 3.4631                 4.0620
 Frc consts  --      2.4907                 1.8633                 2.3008
 IR Inten    --     17.9820                18.4297                72.8837

                     34                     35                     36
                      A                      A                      A
 Frequencies --    985.6544              1020.6701              1053.6929
 Red. masses --      3.7178                 3.3259                 2.4912
 Frc consts  --      2.1280                 2.0414                 1.6296
 IR Inten    --     46.1959                10.1374                24.0724

                     37                     38                     39
                      A                      A                      A
 Frequencies --   1070.4326              1103.0404              1109.3818
 Red. masses --      2.8292                 3.3795                 2.8548
 Frc consts  --      1.9100                 2.4226                 2.0701
 IR Inten    --     19.5627                79.3024                52.4670

                     40                     41                     42
                      A                      A                      A
 Frequencies --   1143.0500              1148.3447              1155.6360
 Red. masses --      3.1594                 3.2504                 3.4372
 Frc consts  --      2.4321                 2.5254                 2.7045
 IR Inten    --     64.1884               170.5143                74.5304

                     43                     44                     45
                      A                      A                      A
 Frequencies --   1162.6596              1172.3101              1176.7998
 Red. masses --      3.4146                 2.8932                 1.3522
 Frc consts  --      2.7195                 2.3427                 1.1033
 IR Inten    --    374.1851                19.6602                 2.1208

                     46                     47                     48
                      A                      A                      A
 Frequencies --   1178.5399              1188.7308              1190.7182
 Red. masses --      1.2720                 1.2895                 1.3798
 Frc consts  --      1.0410                 1.0736                 1.1526
 IR Inten    --      3.0938                 4.0302                 2.2172

                     49                     50                     51
                      A                      A                      A
 Frequencies --   1215.0981              1224.1508              1227.6643
 Red. masses --      1.4730                 1.5931                 1.6617
 Frc consts  --      1.2814                 1.4066                 1.4756
 IR Inten    --     66.8359                89.6721                13.1907

                     52                     53                     54
                      A                      A                      A
 Frequencies --   1232.3414              1253.6891              1279.5335
 Red. masses --      1.5905                 1.5306                 1.1810
 Frc consts  --      1.4231                 1.4174                 1.1392
 IR Inten    --     14.0293                27.3127                 8.9360

                     55                     56                     57
                      A                      A                      A
 Frequencies --   1293.8279              1329.1282              1339.9598
 Red. masses --      1.3697                 1.3041                 1.2189
 Frc consts  --      1.3509                 1.3573                 1.2895
 IR Inten    --     75.0330                28.9616                58.1560

                     58                     59                     60
                      A                      A                      A
 Frequencies --   1360.4969              1398.5871              1406.6330
 Red. masses --      1.2655                 1.3006                 1.3700
 Frc consts  --      1.3801                 1.4989                 1.5971
 IR Inten    --      0.1836                13.1565                 0.9381

                     61                     62                     63
                      A                      A                      A
 Frequencies --   1412.1873              1447.8412              1456.9297
 Red. masses --      1.3419                 1.3575                 1.2914
 Frc consts  --      1.5767                 1.6766                 1.6150
 IR Inten    --     28.8988                12.0563                49.2029

                     64                     65                     66
                      A                      A                      A
 Frequencies --   1495.1823              1496.7468              1498.5645
 Red. masses --      1.1520                 1.1507                 1.1523
 Frc consts  --      1.5174                 1.5189                 1.5247
 IR Inten    --      1.6687                 3.3405                 1.8949

                     67                     68                     69
                      A                      A                      A
 Frequencies --   1500.5957              1508.8680              1510.6263
 Red. masses --      1.1187                 1.0469                 1.0556
 Frc consts  --      1.4841                 1.4043                 1.4192
 IR Inten    --      1.2672                 8.9641                 8.2050

                     70                     71                     72
                      A                      A                      A
 Frequencies --   1512.6351              1521.0609              1522.5659
 Red. masses --      1.0524                 1.0595                 1.0559
 Frc consts  --      1.4187                 1.4442                 1.4422
 IR Inten    --      5.3563                21.4085                 8.9849

                     73                     74                     75
                      A                      A                      A
 Frequencies --   1524.9604              1533.8116              1542.3538
 Red. masses --      1.0479                 1.0510                 1.0992
 Frc consts  --      1.4358                 1.4568                 1.5406
 IR Inten    --     25.2018                15.0947                 4.7859

                     76                     77                     78
                      A                      A                      A
 Frequencies --   1544.6797              1654.7928              2957.8189
 Red. masses --      1.0625                 7.3665                 1.0761
 Frc consts  --      1.4937                11.8851                 5.5471
 IR Inten    --      5.3230               326.4547                22.7183

                     79                     80                     81
                      A                      A                      A
 Frequencies --   3002.8834              3018.3509              3031.7019
 Red. masses --      1.0557                 1.0376                 1.0763
 Frc consts  --      5.6088                 5.5694                 5.8285
 IR Inten    --     38.2408                66.1847                 6.6030

                     82                     83                     84
                      A                      A                      A
 Frequencies --   3039.1188              3044.2530              3045.2034
 Red. masses --      1.0417                 1.0511                 1.0921
 Frc consts  --      5.6687                 5.7394                 5.9670
 IR Inten    --     46.5711                29.5073                61.7037

                     85                     86                     87
                      A                      A                      A
 Frequencies --   3053.7804              3071.6095              3096.9731
 Red. masses --      1.0339                 1.1067                 1.0870
 Frc consts  --      5.6808                 6.1519                 6.1424
 IR Inten    --     60.3624                58.2510                 9.4391

                     88                     89                     90
                      A                      A                      A
 Frequencies --   3107.1978              3122.5901              3131.0268
 Red. masses --      1.1026                 1.0976                 1.1048
 Frc consts  --      6.2717                 6.3058                 6.3814
 IR Inten    --     61.2628                38.1608                27.9165

                     91                     92                     93
                      A                      A                      A
 Frequencies --   3144.1444              3159.3957              3166.9293
 Red. masses --      1.0870                 1.0993                 1.1046
 Frc consts  --      6.3314                 6.4649                 6.5271
 IR Inten    --      1.1870                28.9836                23.0403

                     94                     95                     96
                      A                      A                      A
 Frequencies --   3168.4308              3178.2960              3202.5244
 Red. masses --      1.1013                 1.1038                 1.0944
 Frc consts  --      6.5138                 6.5693                 6.6131
 IR Inten    --     15.2573                17.4781                 1.7895

 - Thermochemistry -
 -------------------
 Temperature   298.150 Kelvin.  Pressure   1.00000 Atm.
 Atom     1 has atomic number  6 and mass  12.00000

 Molecular mass:   219.12325 amu.
 Principal axes and moments of inertia in atomic units:
                           1         2         3
     Eigenvalues --  2111.382624738.374496404.77194
           X            0.99998   0.00565  -0.00214
           Y           -0.00564   0.99996   0.00623
           Z            0.00217  -0.00622   0.99998
 This molecule is an asymmetric top.
 Rotational symmetry number  1.
 Warning -- assumption of classical behavior for rotation
           may cause significant error
 Rotational temperatures (Kelvin)      0.04102     0.01828     0.01352
 Rotational constants (GHZ):           0.85477     0.38088     0.28178
 Zero-point vibrational energy     773757.2 (Joules/Mol)
                                  184.93241 (Kcal/Mol)
 Warning -- explicit consideration of  27 degrees of freedom as
           vibrations may cause significant error
 Vibrational temperatures:     50.85    94.84   105.84   124.56   131.86
          (Kelvin)            143.81   199.66   229.43   245.90   274.03
                              284.40   300.96   312.69   351.73   363.06
                              402.00   413.06   433.86   461.20   541.65
                              577.57   603.10   661.86   765.50   782.29
                              803.91   884.38  1035.80  1073.29  1227.40
                             1339.73  1374.92  1410.72  1418.14  1468.52
                             1516.03  1540.11  1587.03  1596.15  1644.59
                             1652.21  1662.70  1672.81  1686.69  1693.15
                             1695.66  1710.32  1713.18  1748.26  1761.28
                             1766.34  1773.06  1803.78  1840.96  1861.53
                             1912.32  1927.90  1957.45  2012.25  2023.83
                             2031.82  2083.12  2096.20  2151.23  2153.48
                             2156.10  2159.02  2170.92  2173.45  2176.34
                             2188.47  2190.63  2194.08  2206.81  2219.10
                             2222.45  2380.88  4255.64  4320.48  4342.73
                             4361.94  4372.61  4380.00  4381.37  4393.71
                             4419.36  4455.85  4470.56  4492.71  4504.85
                             4523.72  4545.67  4556.50  4558.67  4572.86
                             4607.72

 Zero-point correction=                           0.294709 (Hartree/Particle)
 Thermal correction to Energy=                    0.311922
 Thermal correction to Enthalpy=                  0.312867
 Thermal correction to Gibbs Free Energy=         0.249724
 Sum of electronic and zero-point Energies=           -768.030082
 Sum of electronic and thermal Energies=              -768.012868
 Sum of electronic and thermal Enthalpies=            -768.011924
 Sum of electronic and thermal Free Energies=         -768.075066

                     E (Thermal)             CV                S
                      KCal/Mol        Cal/Mol-Kelvin    Cal/Mol-Kelvin
 Total                  195.734             61.653            132.895
 Electronic               0.000              0.000              0.000
 Translational            0.889              2.981             42.056
 Rotational               0.889              2.981             32.527
 Vibrational            193.957             55.691             58.312
 Vibration     1          0.594              1.982              5.504
 Vibration     2          0.597              1.971              4.272
 Vibration     3          0.599              1.966              4.056
 Vibration     4          0.601              1.959              3.736
 Vibration     5          0.602              1.955              3.625
 Vibration     6          0.604              1.949              3.455
 Vibration     7          0.614              1.915              2.821
 Vibration     8          0.621              1.892              2.556
 Vibration     9          0.626              1.878              2.425
 Vibration    10          0.634              1.853              2.223
 Vibration    11          0.637              1.843              2.155
 Vibration    12          0.642              1.827              2.051
 Vibration    13          0.646              1.815              1.981
 Vibration    14          0.660              1.772              1.770
 Vibration    15          0.664              1.759              1.714
 Vibration    16          0.680              1.712              1.537
 Vibration    17          0.684              1.698              1.491
 Vibration    18          0.694              1.671              1.408
 Vibration    19          0.706              1.634              1.307
 Vibration    20          0.747              1.520              1.053
 Vibration    21          0.767              1.467              0.957
 Vibration    22          0.782              1.429              0.895
 Vibration    23          0.818              1.339              0.766
 Vibration    24          0.887              1.179              0.583
 Vibration    25          0.899              1.153              0.557
 Vibration    26          0.914              1.121              0.526
 Vibration    27          0.974              1.001              0.425

 Optimization completed.
    -- Stationary point found.
 Normal termination of Gaussian 16 at Fri May 24 08:52:43 2019.
