 Gaussian 16, Revision A.03,
 Gaussian 16:  ES64L-G16RevA.03 25-Dec-2016

 -------------------------------------------------------------------
 #p b3lyp 6-31g* opt freq=noraman scrf=(pcm,solvent=tetrahydrofuran)
 -------------------------------------------------------------------

 -----
 title
 -----
 Symbolic Z-matrix:
 Charge =  1 Multiplicity = 1

 SCF Done:  E(RB3LYP) =  -768.325950248     A.U. after   13 cycles
 Optimization completed.
    -- Stationary point found.
 Normal termination of Gaussian 16 at Fri May 24 08:37:47 2019.

 --------------------------------------------------------------------
 #P Geom=AllCheck Guess=TCheck SCRF=Check GenChk RB3LYP/6-31G(d) Freq
 --------------------------------------------------------------------

 Structure from the checkpoint file:  "/scratch/Gau-3233.chk"
 -----
 title
 -----
 Charge =  1 Multiplicity = 1

                         Standard orientation:
 ---------------------------------------------------------------------
 Center     Atomic      Atomic             Coordinates (Angstroms)
 Number     Number       Type             X           Y           Z
 ---------------------------------------------------------------------
      1          6           0       -1.042416    0.076026    0.201306
      2          6           0       -0.453455   -1.346533   -0.006728
      3          6           0        0.302385   -1.369304   -1.289089
      4          6           0        1.256891    0.804991   -0.847878
      5          6           0        0.111980    1.111313    0.161630
      6          1           0        0.260979   -2.233369   -1.954743
      7          1           0        0.312814   -1.489308    0.774707
      8          1           0       -1.765808    0.286158   -0.598106
      9          1           0        1.337057    1.586310   -1.601395
     10          1           0        0.554363    1.077359    1.160611
     11          8           0        1.017774   -0.422908   -1.700553
     12          8           0       -1.324815   -2.431194    0.089897
     13          8           0       -1.675020    0.050465    1.452817
     14          8           0       -0.310731    2.453190    0.008177
     15          6           0        2.609727    0.567966   -0.199008
     16          1           0        2.892094    1.502172    0.310914
     17          1           0        3.368326    0.355394   -0.965950
     18          8           0        2.468235   -0.507515    0.700502
     19          6           0       -2.541326   -2.341295   -0.661970
     20          1           0       -2.354103   -2.101485   -1.718457
     21          1           0       -2.999597   -3.328772   -0.599663
     22          1           0       -3.221195   -1.599367   -0.231185
     23          6           0       -2.692156    1.038895    1.648151
     24          1           0       -3.468353    0.960322    0.875079
     25          1           0       -3.135651    0.824697    2.621874
     26          1           0       -2.274398    2.050412    1.648635
     27          6           0       -1.064274    2.782741   -1.160966
     28          1           0       -0.612686    2.380265   -2.077176
     29          1           0       -2.100757    2.433972   -1.091996
     30          1           0       -1.062116    3.872269   -1.219932
     31          6           0        3.671086   -0.821004    1.402917
     32          1           0        4.469485   -1.106888    0.705789
     33          1           0        4.005597    0.032781    2.006025
     34          1           0        3.439757   -1.662007    2.058061
 ---------------------------------------------------------------------

 SCF Done:  E(RB3LYP) =  -768.325950248     A.U. after    1 cycles

 The electronic state is 1-A.
 Alpha  occ. eigenvalues --  -19.32996 -19.20459 -19.19690 -19.19617 -19.19112
 Alpha  occ. eigenvalues --  -10.39594 -10.32317 -10.31487 -10.29939 -10.29615
 Alpha  occ. eigenvalues --  -10.28508 -10.26026 -10.25677 -10.25271 -10.24913
 Alpha  occ. eigenvalues --   -1.21750  -1.09584  -1.08115  -1.07670  -1.06497
 Alpha  occ. eigenvalues --   -0.87155  -0.85767  -0.77600  -0.75568  -0.74113
 Alpha  occ. eigenvalues --   -0.71939  -0.69287  -0.67857  -0.66001  -0.62515
 Alpha  occ. eigenvalues --   -0.59658  -0.58761  -0.56600  -0.54474  -0.54153
 Alpha  occ. eigenvalues --   -0.52441  -0.51897  -0.51446  -0.50659  -0.49037
 Alpha  occ. eigenvalues --   -0.48305  -0.47905  -0.46927  -0.46057  -0.45461
 Alpha  occ. eigenvalues --   -0.44287  -0.43493  -0.42840  -0.41999  -0.40869
 Alpha  occ. eigenvalues --   -0.40088  -0.37242  -0.36571  -0.35330  -0.34850
 Alpha  occ. eigenvalues --   -0.32220  -0.31258  -0.30099  -0.28155
 Alpha virt. eigenvalues --   -0.15128  -0.00040   0.04384   0.04779   0.06021
 Alpha virt. eigenvalues --    0.06652   0.08119   0.08315   0.09543   0.09825
 Alpha virt. eigenvalues --    0.11258   0.11615   0.12011   0.12896   0.13167

 Mulliken charges:
               1
     1  C    0.088626
     2  C    0.033382
     3  C    0.281515
     4  C    0.019630
     5  C    0.110552
     6  H    0.280691
     7  H    0.267187
     8  H    0.171938
     9  H    0.243743
    10  H    0.212318
    11  O   -0.299939
    12  O   -0.467071
    13  O   -0.480395
    14  O   -0.480677
    15  C   -0.034377
    16  H    0.193769
    17  H    0.185987
    18  O   -0.489709
    19  C   -0.241580
    20  H    0.157841
    21  H    0.198109
    22  H    0.180913
    23  C   -0.230183
    24  H    0.158775
    25  H    0.184710
    26  H    0.174806
    27  C   -0.241827
    28  H    0.158486
    29  H    0.167922
    30  H    0.193699
    31  C   -0.213762
    32  H    0.163737
    33  H    0.166278
    34  H    0.184907
 Sum of Mulliken charges =   1.00000

 Dipole moment (field-independent basis, Debye):
    X=              1.6991    Y=             -0.3526    Z=             -5.2503  Tot=              5.5297
 Quadrupole moment (field-independent basis, Debye-Ang):
   XX=            -57.0951   YY=            -76.9444   ZZ=            -77.8882
   XY=             -1.3103   XZ=              4.1721   YZ=              3.0257

  Exact polarizability: 153.196   4.089 147.373  -4.384   0.855 128.851
 Approx polarizability: 161.820   6.765 168.283  -6.325  -1.484 157.824

                      1                      2                      3
                      A                      A                      A
 Frequencies --     39.7592                50.9330                65.2429
 Red. masses --      3.7329                 2.3989                 2.8750
 Frc consts  --      0.0035                 0.0037                 0.0072
 IR Inten    --      1.3100                 0.5411                 2.9457

                      4                      5                      6
                      A                      A                      A
 Frequencies --     77.2212               107.4810               117.5379
 Red. masses --      3.2845                 3.0027                 2.5135
 Frc consts  --      0.0115                 0.0204                 0.0205
 IR Inten    --      2.8976                 1.6561                 1.0884

                      7                      8                      9
                      A                      A                      A
 Frequencies --    119.4204               151.7156               158.7564
 Red. masses --      2.1577                 1.7892                 2.5043
 Frc consts  --      0.0181                 0.0243                 0.0372
 IR Inten    --      8.5850                 1.9809                 6.3213

                     10                     11                     12
                      A                      A                      A
 Frequencies --    177.4252               203.4777               215.8171
 Red. masses --      1.5294                 1.1953                 1.6614
 Frc consts  --      0.0284                 0.0292                 0.0456
 IR Inten    --      3.5627                 0.6096                13.1700

                     13                     14                     15
                      A                      A                      A
 Frequencies --    223.9819               227.8037               261.4562
 Red. masses --      1.6222                 2.8195                 3.6610
 Frc consts  --      0.0479                 0.0862                 0.1474
 IR Inten    --      9.0035                 0.7661                 0.8819

                     16                     17                     18
                      A                      A                      A
 Frequencies --    282.5135               294.7761               311.4749
 Red. masses --      2.8010                 3.5187                 5.3397
 Frc consts  --      0.1317                 0.1801                 0.3052
 IR Inten    --      8.0675                11.9184                 3.6897

                     19                     20                     21
                      A                      A                      A
 Frequencies --    323.9899               382.4575               421.7311
 Red. masses --      3.2893                 4.3706                 4.0111
 Frc consts  --      0.2034                 0.3767                 0.4203
 IR Inten    --      9.5327                 8.4618                 6.3134

                     22                     23                     24
                      A                      A                      A
 Frequencies --    451.4924               463.7980               493.6943
 Red. masses --      5.0870                 3.5875                 3.9495
 Frc consts  --      0.6110                 0.4547                 0.5672
 IR Inten    --      5.9996                12.2650                14.5511

                     25                     26                     27
                      A                      A                      A
 Frequencies --    555.7401               613.8166               657.6699
 Red. masses --      4.3166                 2.8016                 4.6507
 Frc consts  --      0.7855                 0.6219                 1.1852
 IR Inten    --      7.6899                16.5220                16.3520

                     28                     29                     30
                      A                      A                      A
 Frequencies --    710.7698               767.7916               872.9866
 Red. masses --      4.9164                 4.3967                 2.1137
 Frc consts  --      1.4634                 1.5271                 0.9491
 IR Inten    --     49.9137                57.2013                42.7191

                     31                     32                     33
                      A                      A                      A
 Frequencies --    902.4852               927.0756               959.5686
 Red. masses --      3.2405                 3.6658                 3.7533
 Frc consts  --      1.5550                 1.8563                 2.0362
 IR Inten    --      7.2720                 4.9585                45.2877

                     34                     35                     36
                      A                      A                      A
 Frequencies --    975.1187              1002.2102              1033.6481
 Red. masses --      2.7393                 4.7998                 4.1406
 Frc consts  --      1.5347                 2.8405                 2.6065
 IR Inten    --     31.0118                19.2154               122.6075

                     37                     38                     39
                      A                      A                      A
 Frequencies --   1063.3404              1071.8055              1091.7869
 Red. masses --      2.9098                 3.0590                 2.1614
 Frc consts  --      1.9385                 2.0704                 1.5179
 IR Inten    --     46.5008                23.6908                 6.2933

                     40                     41                     42
                      A                      A                      A
 Frequencies --   1120.2260              1133.7243              1152.4458
 Red. masses --      3.1597                 3.3169                 4.0976
 Frc consts  --      2.3362                 2.5118                 3.2064
 IR Inten    --     42.6885               160.0119               201.4439

                     43                     44                     45
                      A                      A                      A
 Frequencies --   1158.6146              1171.6047              1184.1014
 Red. masses --      3.3719                 1.6400                 1.3064
 Frc consts  --      2.6669                 1.3263                 1.0792
 IR Inten    --    123.5249                44.4167                 3.3514

                     46                     47                     48
                      A                      A                      A
 Frequencies --   1184.8314              1189.0047              1193.3454
 Red. masses --      1.2867                 1.3403                 1.8842
 Frc consts  --      1.0642                 1.1164                 1.5809
 IR Inten    --      2.9636                13.1933                67.0114

                     49                     50                     51
                      A                      A                      A
 Frequencies --   1224.8630              1225.9414              1228.5653
 Red. masses --      1.6124                 1.5895                 1.7070
 Frc consts  --      1.4253                 1.4075                 1.5180
 IR Inten    --     58.7121                72.9715                37.8114

                     52                     53                     54
                      A                      A                      A
 Frequencies --   1238.2546              1257.7044              1270.3480
 Red. masses --      1.8846                 1.5454                 1.1081
 Frc consts  --      1.7025                 1.4403                 1.0536
 IR Inten    --     62.0315                22.1540                15.2109

                     55                     56                     57
                      A                      A                      A
 Frequencies --   1305.0371              1312.0272              1342.3592
 Red. masses --      1.2485                 1.2234                 1.3059
 Frc consts  --      1.2528                 1.2408                 1.3864
 IR Inten    --      9.6596                28.7799                 1.9865

                     58                     59                     60
                      A                      A                      A
 Frequencies --   1363.8695              1369.2292              1406.7637
 Red. masses --      1.3402                 1.2355                 1.3016
 Frc consts  --      1.4688                 1.3647                 1.5177
 IR Inten    --      3.2733                21.5494                32.8002

                     61                     62                     63
                      A                      A                      A
 Frequencies --   1410.0841              1422.0347              1434.9769
 Red. masses --      1.3981                 1.3302                 1.2687
 Frc consts  --      1.6378                 1.5848                 1.5392
 IR Inten    --     45.6388                40.0941                 8.3869

                     64                     65                     66
                      A                      A                      A
 Frequencies --   1495.9490              1496.4345              1500.2466
 Red. masses --      1.1274                 1.1305                 1.1413
 Frc consts  --      1.4865                 1.4915                 1.5135
 IR Inten    --      3.6527                 1.9789                 3.5320

                     67                     68                     69
                      A                      A                      A
 Frequencies --   1502.0682              1509.8188              1510.2501
 Red. masses --      1.1242                 1.0657                 1.0462
 Frc consts  --      1.4945                 1.4313                 1.4059
 IR Inten    --      2.0137                 8.6234                12.2219

                     70                     71                     72
                      A                      A                      A
 Frequencies --   1511.2191              1520.9994              1521.4516
 Red. masses --      1.0799                 1.0614                 1.0612
 Frc consts  --      1.4531                 1.4467                 1.4474
 IR Inten    --      2.6496                11.6430                11.3708

                     73                     74                     75
                      A                      A                      A
 Frequencies --   1529.1051              1531.4155              1533.3673
 Red. masses --      1.0465                 1.0492                 1.0515
 Frc consts  --      1.4417                 1.4497                 1.4566
 IR Inten    --     13.1690                26.1068                10.0037

                     76                     77                     78
                      A                      A                      A
 Frequencies --   1538.4918              1649.9123              3014.0301
 Red. masses --      1.0927                 6.5773                 1.0778
 Frc consts  --      1.5239                10.5492                 5.7689
 IR Inten    --      6.6410               187.3554                25.9287

                     79                     80                     81
                      A                      A                      A
 Frequencies --   3018.5821              3026.9024              3034.1831
 Red. masses --      1.0563                 1.0439                 1.0358
 Frc consts  --      5.6706                 5.6352                 5.6184
 IR Inten    --     25.3267                43.3267                99.1270

                     82                     83                     84
                      A                      A                      A
 Frequencies --   3034.6007              3039.3865              3052.5835
 Red. masses --      1.0396                 1.0379                 1.0791
 Frc consts  --      5.6403                 5.6490                 5.9242
 IR Inten    --     15.2805                25.2830                45.6681

                     85                     86                     87
                      A                      A                      A
 Frequencies --   3059.8174              3095.0190              3102.5748
 Red. masses --      1.1065                 1.1073                 1.1044
 Frc consts  --      6.1036                 6.2495                 6.2637
 IR Inten    --     40.6727                43.7211                53.6563

                     88                     89                     90
                      A                      A                      A
 Frequencies --   3110.2271              3114.3297              3115.7688
 Red. masses --      1.0965                 1.0868                 1.0970
 Frc consts  --      6.2492                 6.2105                 6.2746
 IR Inten    --     46.0597                 8.0725                34.7738

                     91                     92                     93
                      A                      A                      A
 Frequencies --   3165.0384              3168.5896              3170.1141
 Red. masses --      1.1010                 1.1036                 1.1011
 Frc consts  --      6.4981                 6.5284                 6.5198
 IR Inten    --     22.7092                21.1752                20.0904

                     94                     95                     96
                      A                      A                      A
 Frequencies --   3177.2226              3182.7094              3202.7137
 Red. masses --      1.1015                 1.0879                 1.0939
 Frc consts  --      6.5514                 6.4926                 6.6110
 IR Inten    --     18.8757                 0.0650                 1.5288

 - Thermochemistry -
 -------------------
 Temperature   298.150 Kelvin.  Pressure   1.00000 Atm.
 Atom     1 has atomic number  6 and mass  12.00000

 Molecular mass:   219.12325 amu.
 Principal axes and moments of inertia in atomic units:
                           1         2         3
     Eigenvalues --  2682.786833616.082534622.43278
           X            0.99960  -0.01879   0.02134
           Y            0.01897   0.99979  -0.00821
           Z           -0.02118   0.00861   0.99974
 This molecule is an asymmetric top.
 Rotational symmetry number  1.
 Warning -- assumption of classical behavior for rotation
           may cause significant error
 Rotational temperatures (Kelvin)      0.03229     0.02395     0.01874
 Rotational constants (GHZ):           0.67271     0.49909     0.39043
 Zero-point vibrational energy     773773.6 (Joules/Mol)
                                  184.93634 (Kcal/Mol)
 Warning -- explicit consideration of  26 degrees of freedom as
           vibrations may cause significant error
 Vibrational temperatures:     57.20    73.28    93.87   111.10   154.64
          (Kelvin)            169.11   171.82   218.28   228.41   255.28
                              292.76   310.51   322.26   327.76   376.18
                              406.47   424.12   448.14   466.15   550.27
                              606.78   649.60   667.30   710.32   799.59
                              883.15   946.24  1022.64  1104.68  1256.03
                             1298.47  1333.85  1380.61  1402.98  1441.96
                             1487.19  1529.91  1542.09  1570.84  1611.76
                             1631.18  1658.11  1666.99  1685.68  1703.66
                             1704.71  1710.71  1716.96  1762.30  1763.86
                             1767.63  1781.57  1809.56  1827.75  1877.66
                             1887.71  1931.36  1962.30  1970.02  2024.02
                             2028.80  2045.99  2064.61  2152.34  2153.04
                             2158.52  2161.14  2172.29  2172.91  2174.31
                             2188.38  2189.03  2200.04  2203.37  2206.17
                             2213.55  2373.86  4336.52  4343.07  4355.04
                             4365.51  4366.11  4373.00  4391.99  4402.39
                             4453.04  4463.91  4474.92  4480.83  4482.90
                             4553.78  4558.89  4561.09  4571.31  4579.21
                             4607.99

 Zero-point correction=                           0.294715 (Hartree/Particle)
 Thermal correction to Energy=                    0.311896
 Thermal correction to Enthalpy=                  0.312840
 Thermal correction to Gibbs Free Energy=         0.249733
 Sum of electronic and zero-point Energies=           -768.031235
 Sum of electronic and thermal Energies=              -768.014054
 Sum of electronic and thermal Enthalpies=            -768.013110
 Sum of electronic and thermal Free Energies=         -768.076217

                     E (Thermal)             CV                S
                      KCal/Mol        Cal/Mol-Kelvin    Cal/Mol-Kelvin
 Total                  195.718             61.549            132.819
 Electronic               0.000              0.000              0.000
 Translational            0.889              2.981             42.056
 Rotational               0.889              2.981             32.172
 Vibrational            193.940             55.587             58.591
 Vibration     1          0.594              1.981              5.271
 Vibration     2          0.595              1.977              4.781
 Vibration     3          0.597              1.971              4.292
 Vibration     4          0.599              1.964              3.960
 Vibration     5          0.606              1.943              3.314
 Vibration     6          0.608              1.935              3.140
 Vibration     7          0.609              1.933              3.110
 Vibration     8          0.619              1.901              2.651
 Vibration     9          0.621              1.893              2.565
 Vibration    10          0.628              1.870              2.355
 Vibration    11          0.639              1.835              2.101
 Vibration    12          0.645              1.817              1.994
 Vibration    13          0.649              1.805              1.927
 Vibration    14          0.651              1.799              1.896
 Vibration    15          0.669              1.743              1.652
 Vibration    16          0.682              1.706              1.518
 Vibration    17          0.689              1.683              1.446
 Vibration    18          0.700              1.652              1.354
 Vibration    19          0.709              1.627              1.290
 Vibration    20          0.752              1.508              1.029
 Vibration    21          0.784              1.423              0.886
 Vibration    22          0.810              1.358              0.791
 Vibration    23          0.821              1.330              0.755
 Vibration    24          0.849              1.264              0.674
 Vibration    25          0.911              1.127              0.532
 Vibration    26          0.973              1.003              0.426

                           ! Non-Optimized Parameters !
 Normal termination of Gaussian 16 at Fri May 24 09:22:36 2019.
