 Gaussian 16, Revision A.03,
 Gaussian 16:  ES64L-G16RevA.03 25-Dec-2016

 -------------------------------------------------------------------
 #p b3lyp 6-31g* opt freq=noraman scrf=(pcm,solvent=tetrahydrofuran)
 -------------------------------------------------------------------

 -----
 title
 -----
 Symbolic Z-matrix:
 Charge =  1 Multiplicity = 1

 SCF Done:  E(RB3LYP) =  -768.325280386     A.U. after   13 cycles
 Optimization completed.
    -- Stationary point found.
 Normal termination of Gaussian 16 at Fri May 24 08:35:40 2019.

 --------------------------------------------------------------------
 #P Geom=AllCheck Guess=TCheck SCRF=Check GenChk RB3LYP/6-31G(d) Freq
 --------------------------------------------------------------------

 Structure from the checkpoint file:  "/scratch/Gau-1805.chk"
 -----
 title
 -----
 Charge =  1 Multiplicity = 1

                         Standard orientation:
 ---------------------------------------------------------------------
 Center     Atomic      Atomic             Coordinates (Angstroms)
 Number     Number       Type             X           Y           Z
 ---------------------------------------------------------------------
      1          6           0       -1.101534    0.395867   -0.002214
      2          6           0       -0.854836   -1.156028   -0.021908
      3          6           0       -0.064659   -1.456966   -1.244371
      4          6           0        1.300388    0.531049   -0.948156
      5          6           0        0.286131    1.060600    0.108128
      6          1           0       -0.263267   -2.344509   -1.848311
      7          1           0       -0.180153   -1.402879    0.816179
      8          1           0       -1.577198    0.682676   -0.944532
      9          1           0        1.427905    1.242545   -1.763013
     10          1           0        0.699170    0.809563    1.088005
     11          8           0        0.841667   -0.709983   -1.690492
     12          8           0       -1.965333   -1.986201    0.114427
     13          8           0       -2.014768    0.790871    0.978827
     14          8           0        0.279239    2.468889    0.080557
     15          6           0        2.639635    0.136363   -0.353182
     16          1           0        3.073964    1.041091    0.099859
     17          1           0        3.321838   -0.216171   -1.139643
     18          8           0        2.385124   -0.869518    0.602156
     19          6           0       -3.090650   -1.699411   -0.732474
     20          1           0       -3.809999   -2.495224   -0.537868
     21          1           0       -3.535720   -0.733051   -0.480209
     22          1           0       -2.816975   -1.722183   -1.795830
     23          6           0       -1.697238    0.516321    2.346802
     24          1           0       -1.547033   -0.556221    2.518267
     25          1           0       -0.818409    1.075852    2.684582
     26          1           0       -2.566815    0.845365    2.917202
     27          6           0       -0.496660    3.108554   -0.936524
     28          1           0       -0.240037    4.167447   -0.879555
     29          1           0       -0.252961    2.742380   -1.943012
     30          1           0       -1.569811    2.988322   -0.753308
     31          6           0        3.560482   -1.324057    1.271328
     32          1           0        3.242272   -2.097764    1.971729
     33          1           0        4.279307   -1.748464    0.558202
     34          1           0        4.040147   -0.504982    1.822899
 ---------------------------------------------------------------------

 SCF Done:  E(RB3LYP) =  -768.325280386     A.U. after    1 cycles

 The electronic state is 1-A.
 Alpha  occ. eigenvalues --  -19.32837 -19.20715 -19.19916 -19.19524 -19.19444
 Alpha  occ. eigenvalues --  -10.39498 -10.32288 -10.31764 -10.30138 -10.29642
 Alpha  occ. eigenvalues --  -10.28326 -10.25886 -10.25360 -10.25337 -10.25234
 Alpha  occ. eigenvalues --   -1.21539  -1.09807  -1.08248  -1.07555  -1.06698
 Alpha  occ. eigenvalues --   -0.87157  -0.85872  -0.77748  -0.75562  -0.74710
 Alpha  occ. eigenvalues --   -0.71877  -0.69626  -0.67682  -0.65707  -0.62192
 Alpha  occ. eigenvalues --   -0.60011  -0.58658  -0.56334  -0.54611  -0.54371
 Alpha  occ. eigenvalues --   -0.52807  -0.52166  -0.51245  -0.50573  -0.48942
 Alpha  occ. eigenvalues --   -0.48465  -0.47858  -0.46994  -0.46087  -0.45024
 Alpha  occ. eigenvalues --   -0.44071  -0.43318  -0.42845  -0.42275  -0.41664
 Alpha  occ. eigenvalues --   -0.40284  -0.37015  -0.36410  -0.35829  -0.34797
 Alpha  occ. eigenvalues --   -0.32480  -0.30746  -0.29908  -0.28745
 Alpha virt. eigenvalues --   -0.15043  -0.00292   0.04095   0.05553   0.05778
 Alpha virt. eigenvalues --    0.07294   0.07649   0.08326   0.09031   0.09893
 Alpha virt. eigenvalues --    0.11157   0.11918   0.12280   0.12915   0.13512

 Mulliken charges:
               1
     1  C    0.082307
     2  C    0.022104
     3  C    0.285746
     4  C    0.035031
     5  C    0.101187
     6  H    0.279736
     7  H    0.254571
     8  H    0.192463
     9  H    0.241991
    10  H    0.202713
    11  O   -0.301272
    12  O   -0.472780
    13  O   -0.465382
    14  O   -0.481334
    15  C   -0.034338
    16  H    0.192280
    17  H    0.185322
    18  O   -0.491569
    19  C   -0.244847
    20  H    0.197229
    21  H    0.187000
    22  H    0.160720
    23  C   -0.242661
    24  H    0.169788
    25  H    0.173000
    26  H    0.192333
    27  C   -0.241523
    28  H    0.190333
    29  H    0.156985
    30  H    0.175653
    31  C   -0.213009
    32  H    0.182501
    33  H    0.163040
    34  H    0.164682
 Sum of Mulliken charges =   1.00000

 Dipole moment (field-independent basis, Debye):
    X=              2.1421    Y=             -2.1747    Z=             -3.9410  Tot=              4.9849
 Quadrupole moment (field-independent basis, Debye-Ang):
   XX=            -64.6034   YY=            -77.5629   ZZ=            -72.5080
   XY=              0.1455   XZ=              3.6424   YZ=              0.3702

  Exact polarizability: 152.699   4.428 145.900  -6.934   3.104 134.670
 Approx polarizability: 167.399   4.664 167.496 -10.520   3.938 161.793

                      1                      2                      3
                      A                      A                      A
 Frequencies --     32.8503                60.7346                65.5668
 Red. masses --      4.3791                 2.9149                 2.5981
 Frc consts  --      0.0028                 0.0063                 0.0066
 IR Inten    --      1.0880                 1.2078                 4.6139

                      4                      5                      6
                      A                      A                      A
 Frequencies --     79.4117               105.7112               119.6037
 Red. masses --      3.2665                 2.8630                 2.3348
 Frc consts  --      0.0121                 0.0189                 0.0197
 IR Inten    --      1.9128                 4.7681                 4.7499

                      7                      8                      9
                      A                      A                      A
 Frequencies --    121.0037               158.6666               174.5149
 Red. masses --      2.9057                 3.1125                 2.7431
 Frc consts  --      0.0251                 0.0462                 0.0492
 IR Inten    --      6.4807                 1.3003                 9.5647

                     10                     11                     12
                      A                      A                      A
 Frequencies --    188.3746               215.6276               222.9984
 Red. masses --      1.5582                 1.3866                 1.3623
 Frc consts  --      0.0326                 0.0380                 0.0399
 IR Inten    --      0.4275                 2.4167                 0.7784

                     13                     14                     15
                      A                      A                      A
 Frequencies --    227.5411               251.5719               259.4798
 Red. masses --      1.4408                 2.1648                 2.8147
 Frc consts  --      0.0440                 0.0807                 0.1117
 IR Inten    --      7.8566                 9.3786                 7.8433

                     16                     17                     18
                      A                      A                      A
 Frequencies --    277.1286               297.4593               324.5550
 Red. masses --      2.6916                 3.0242                 3.5583
 Frc consts  --      0.1218                 0.1577                 0.2208
 IR Inten    --      5.6212                 2.1915                 4.4401

                     19                     20                     21
                      A                      A                      A
 Frequencies --    342.6695               352.4188               394.5435
 Red. masses --      4.1087                 3.5307                 4.1454
 Frc consts  --      0.2843                 0.2584                 0.3802
 IR Inten    --     12.2775                 2.9423                10.3151

                     22                     23                     24
                      A                      A                      A
 Frequencies --    451.6990               478.8279               532.3413
 Red. masses --      4.4599                 3.4394                 4.1257
 Frc consts  --      0.5361                 0.4646                 0.6889
 IR Inten    --      1.6015                19.5668                 4.3065

                     25                     26                     27
                      A                      A                      A
 Frequencies --    556.4699               621.4830               655.4429
 Red. masses --      5.0387                 3.0928                 4.0879
 Frc consts  --      0.9193                 0.7038                 1.0347
 IR Inten    --     19.7162                26.3272                19.4879

                     28                     29                     30
                      A                      A                      A
 Frequencies --    713.2853               752.2838               839.6403
 Red. masses --      4.7341                 4.1338                 2.7368
 Frc consts  --      1.4191                 1.3784                 1.1368
 IR Inten    --     81.4481                51.8163                51.5994

                     31                     32                     33
                      A                      A                      A
 Frequencies --    906.2516               922.8384               949.4985
 Red. masses --      3.2030                 3.9385                 3.4959
 Frc consts  --      1.5499                 1.9762                 1.8569
 IR Inten    --      3.0964                14.2592                 3.4340

                     34                     35                     36
                      A                      A                      A
 Frequencies --    967.8044              1000.2880              1026.4413
 Red. masses --      3.7080                 2.6356                 4.1084
 Frc consts  --      2.0463                 1.5538                 2.5503
 IR Inten    --     71.8982                33.5649                68.4815

                     37                     38                     39
                      A                      A                      A
 Frequencies --   1046.2594              1063.8939              1105.8060
 Red. masses --      2.6946                 3.1750                 2.1023
 Frc consts  --      1.7379                 2.1173                 1.5146
 IR Inten    --     48.3918                70.9361                 0.1828

                     40                     41                     42
                      A                      A                      A
 Frequencies --   1112.2778              1141.2445              1158.0954
 Red. masses --      3.5003                 3.5693                 3.3246
 Frc consts  --      2.5514                 2.7390                 2.6271
 IR Inten    --     39.3868               240.2855               105.8830

                     43                     44                     45
                      A                      A                      A
 Frequencies --   1175.7571              1176.4153              1180.0868
 Red. masses --      1.6446                 2.1338                 1.4943
 Frc consts  --      1.3395                 1.7399                 1.2260
 IR Inten    --     62.5608                85.5391                27.5612

                     46                     47                     48
                      A                      A                      A
 Frequencies --   1187.1548              1190.1727              1199.2585
 Red. masses --      1.3445                 1.3465                 2.0928
 Frc consts  --      1.1164                 1.1238                 1.7734
 IR Inten    --      7.7309                 4.6626                90.1156

                     49                     50                     51
                      A                      A                      A
 Frequencies --   1225.2885              1229.7125              1232.0077
 Red. masses --      1.6370                 1.6955                 1.6340
 Frc consts  --      1.4481                 1.5106                 1.4613
 IR Inten    --     62.8004                77.0967                32.5693

                     52                     53                     54
                      A                      A                      A
 Frequencies --   1239.2119              1252.1204              1269.7186
 Red. masses --      1.7787                 1.5687                 1.1191
 Frc consts  --      1.6093                 1.4491                 1.0630
 IR Inten    --     94.3153                23.1393                25.0304

                     55                     56                     57
                      A                      A                      A
 Frequencies --   1310.3011              1318.3145              1347.4330
 Red. masses --      1.3339                 1.2366                 1.2624
 Frc consts  --      1.3493                 1.2662                 1.3504
 IR Inten    --     33.9269                21.2546                 2.5843

                     58                     59                     60
                      A                      A                      A
 Frequencies --   1366.8656              1396.7956              1411.0735
 Red. masses --      1.2947                 1.3571                 1.3502
 Frc consts  --      1.4252                 1.5601                 1.5840
 IR Inten    --     18.5566                34.2668                13.9687

                     61                     62                     63
                      A                      A                      A
 Frequencies --   1422.7182              1431.3105              1448.0167
 Red. masses --      1.3325                 1.2517                 1.2120
 Frc consts  --      1.5891                 1.5109                 1.4973
 IR Inten    --      7.3150                17.1298                15.3959

                     64                     65                     66
                      A                      A                      A
 Frequencies --   1496.2880              1499.1986              1501.0580
 Red. masses --      1.1459                 1.1373                 1.1432
 Frc consts  --      1.5116                 1.5061                 1.5177
 IR Inten    --      2.0446                 4.4295                 1.3136

                     67                     68                     69
                      A                      A                      A
 Frequencies --   1503.8725              1509.6080              1516.0245
 Red. masses --      1.1503                 1.0463                 1.0492
 Frc consts  --      1.5328                 1.4048                 1.4207
 IR Inten    --      1.4549                 9.8094                 7.8456

                     70                     71                     72
                      A                      A                      A
 Frequencies --   1517.7516              1518.2735              1522.7529
 Red. masses --      1.0472                 1.0501                 1.0652
 Frc consts  --      1.4213                 1.4262                 1.4552
 IR Inten    --      2.9857                24.4796                14.7536

                     73                     74                     75
                      A                      A                      A
 Frequencies --   1525.9560              1535.1193              1537.5490
 Red. masses --      1.0482                 1.0501                 1.0880
 Frc consts  --      1.4381                 1.4581                 1.5155
 IR Inten    --      8.2311                15.8688                 9.6439

                     76                     77                     78
                      A                      A                      A
 Frequencies --   1538.9924              1643.3091              3003.0878
 Red. masses --      1.0516                 6.6279                 1.0792
 Frc consts  --      1.4675                10.5454                 5.7346
 IR Inten    --     19.4750               208.3915                21.5164

                     79                     80                     81
                      A                      A                      A
 Frequencies --   3019.9993              3032.3442              3033.3714
 Red. masses --      1.0564                 1.0355                 1.0389
 Frc consts  --      5.6769                 5.6100                 5.6321
 IR Inten    --     28.3604                71.3160                33.7739

                     82                     83                     84
                      A                      A                      A
 Frequencies --   3038.9835              3048.7718              3064.2333
 Red. masses --      1.0423                 1.0337                 1.1052
 Frc consts  --      5.6714                 5.6610                 6.1141
 IR Inten    --     40.5292                35.2983                43.2443

                     85                     86                     87
                      A                      A                      A
 Frequencies --   3092.3273              3093.2379              3105.9213
 Red. masses --      1.1073                 1.0864                 1.1002
 Frc consts  --      6.2383                 6.1247                 6.2534
 IR Inten    --     41.6864                11.8383                44.6960

                     88                     89                     90
                      A                      A                      A
 Frequencies --   3113.9171              3121.5376              3127.2872
 Red. masses --      1.0996                 1.0924                 1.0955
 Frc consts  --      6.2821                 6.2717                 6.3123
 IR Inten    --     35.1107                27.7507                30.2713

                     91                     92                     93
                      A                      A                      A
 Frequencies --   3167.0910              3167.1956              3170.4886
 Red. masses --      1.1010                 1.1014                 1.1016
 Frc consts  --      6.5069                 6.5093                 6.5244
 IR Inten    --     25.2512                19.0267                20.1334

                     94                     95                     96
                      A                      A                      A
 Frequencies --   3177.7902              3181.5733              3191.9874
 Red. masses --      1.0879                 1.1040                 1.0948
 Frc consts  --      6.4729                 6.5842                 6.5722
 IR Inten    --      0.1294                15.0506                 1.8142

 - Thermochemistry -
 -------------------
 Temperature   298.150 Kelvin.  Pressure   1.00000 Atm.
 Atom     1 has atomic number  6 and mass  12.00000

 Molecular mass:   219.12325 amu.
 Principal axes and moments of inertia in atomic units:
                           1         2         3
     Eigenvalues --  2646.393893683.552614547.23527
           X            0.99977  -0.01039   0.01853
           Y            0.01092   0.99953  -0.02867
           Z           -0.01823   0.02887   0.99942
 This molecule is an asymmetric top.
 Rotational symmetry number  1.
 Warning -- assumption of classical behavior for rotation
           may cause significant error
 Rotational temperatures (Kelvin)      0.03273     0.02351     0.01905
 Rotational constants (GHZ):           0.68196     0.48995     0.39689
 Zero-point vibrational energy     775187.5 (Joules/Mol)
                                  185.27427 (Kcal/Mol)
 Warning -- explicit consideration of  25 degrees of freedom as
           vibrations may cause significant error
 Vibrational temperatures:     47.26    87.38    94.34   114.26   152.09
          (Kelvin)            172.08   174.10   228.29   251.09   271.03
                              310.24   320.84   327.38   361.96   373.33
                              398.73   427.98   466.96   493.03   507.05
                              567.66   649.89   688.93   765.92   800.64
                              894.18   943.04  1026.26  1082.37  1208.06
                             1303.89  1327.76  1366.12  1392.45  1439.19
                             1476.82  1505.33  1530.71  1591.01  1600.32
                             1642.00  1666.24  1691.65  1692.60  1697.88
                             1708.05  1712.39  1725.47  1762.92  1769.28
                             1772.58  1782.95  1801.52  1826.84  1885.23
                             1896.76  1938.66  1966.61  2009.68  2030.22
                             2046.97  2059.34  2083.37  2152.82  2157.01
                             2159.69  2163.74  2171.99  2181.22  2183.71
                             2184.46  2190.90  2195.51  2208.69  2212.19
                             2214.27  2364.36  4320.77  4345.11  4362.87
                             4364.34  4372.42  4386.50  4408.75  4449.17
                             4450.48  4468.73  4480.23  4491.20  4499.47
                             4556.74  4556.89  4561.63  4572.13  4577.57
                             4592.56

 Zero-point correction=                           0.295253 (Hartree/Particle)
 Thermal correction to Energy=                    0.312291
 Thermal correction to Enthalpy=                  0.313235
 Thermal correction to Gibbs Free Energy=         0.250524
 Sum of electronic and zero-point Energies=           -768.030027
 Sum of electronic and thermal Energies=              -768.012989
 Sum of electronic and thermal Enthalpies=            -768.012045
 Sum of electronic and thermal Free Energies=         -768.074756

                     E (Thermal)             CV                S
                      KCal/Mol        Cal/Mol-Kelvin    Cal/Mol-Kelvin
 Total                  195.966             61.417            131.987
 Electronic               0.000              0.000              0.000
 Translational            0.889              2.981             42.056
 Rotational               0.889              2.981             32.161
 Vibrational            194.188             55.455             57.770
 Vibration     1          0.594              1.983              5.649
 Vibration     2          0.597              1.973              4.433
 Vibration     3          0.597              1.971              4.282
 Vibration     4          0.600              1.963              3.905
 Vibration     5          0.605              1.945              3.346
 Vibration     6          0.609              1.933              3.107
 Vibration     7          0.609              1.932              3.084
 Vibration     8          0.621              1.893              2.566
 Vibration     9          0.627              1.874              2.386
 Vibration    10          0.633              1.856              2.244
 Vibration    11          0.645              1.817              1.996
 Vibration    12          0.649              1.806              1.935
 Vibration    13          0.651              1.799              1.898
 Vibration    14          0.664              1.760              1.720
 Vibration    15          0.668              1.747              1.665
 Vibration    16          0.678              1.716              1.551
 Vibration    17          0.691              1.678              1.431
 Vibration    18          0.709              1.626              1.287
 Vibration    19          0.722              1.590              1.200
 Vibration    20          0.729              1.570              1.155
 Vibration    21          0.762              1.482              0.983
 Vibration    22          0.810              1.357              0.791
 Vibration    23          0.835              1.297              0.713
 Vibration    24          0.887              1.178              0.582
 Vibration    25          0.912              1.126              0.531

 Optimization completed.
    -- Stationary point found.
 Normal termination of Gaussian 16 at Fri May 24 09:08:31 2019.
