 Gaussian 16, Revision A.03,
 Gaussian 16:  ES64L-G16RevA.03 25-Dec-2016

 -------------------------------------------------------------------
 #p b3lyp 6-31g* opt freq=noraman scrf=(pcm,solvent=tetrahydrofuran)
 -------------------------------------------------------------------

 -----
 title
 -----
 Symbolic Z-matrix:
 Charge =  1 Multiplicity = 1

 SCF Done:  E(RB3LYP) =  -768.327597453     A.U. after   14 cycles
 Optimization completed.
    -- Stationary point found.
 Normal termination of Gaussian 16 at Fri May 24 08:34:55 2019.

 --------------------------------------------------------------------
 #P Geom=AllCheck Guess=TCheck SCRF=Check GenChk RB3LYP/6-31G(d) Freq
 --------------------------------------------------------------------

 Structure from the checkpoint file:  "/scratch/Gau-28273.chk"
 -----
 title
 -----
 Charge =  1 Multiplicity = 1

                         Standard orientation:
 ---------------------------------------------------------------------
 Center     Atomic      Atomic             Coordinates (Angstroms)
 Number     Number       Type             X           Y           Z
 ---------------------------------------------------------------------
      1          6           0       -1.185457    0.509688   -0.045684
      2          6           0       -1.427231   -1.005458    0.182392
      3          6           0       -0.288279   -1.823064   -0.341538
      4          6           0        1.316833    0.014222   -0.258902
      5          6           0        0.232411    0.839767    0.461202
      6          1           0       -0.452145   -2.859532   -0.641649
      7          1           0       -1.487046   -1.171499    1.271860
      8          1           0       -1.280205    0.705876   -1.123304
      9          1           0        1.513959    0.389597   -1.263928
     10          1           0        0.258315    0.604864    1.532049
     11          8           0        0.875302   -1.405199   -0.553753
     12          8           0       -2.583736   -1.439300   -0.488318
     13          8           0       -2.085847    1.283639    0.695832
     14          8           0        0.601139    2.198603    0.390616
     15          6           0        2.616000   -0.108414    0.512034
     16          1           0        2.461084   -0.714713    1.419918
     17          1           0        2.889205    0.909849    0.830205
     18          8           0        3.581034   -0.674174   -0.338010
     19          6           0       -3.368280   -2.409732    0.222850
     20          1           0       -3.693030   -2.006083    1.189165
     21          1           0       -4.234463   -2.614744   -0.406585
     22          1           0       -2.808837   -3.338901    0.384458
     23          6           0       -3.327595    1.590152    0.050888
     24          1           0       -3.941565    0.695819   -0.088386
     25          1           0       -3.841198    2.292250    0.709801
     26          1           0       -3.155557    2.066822   -0.922891
     27          6           0        0.301249    2.915710   -0.811159
     28          1           0        0.714121    2.435277   -1.707195
     29          1           0       -0.777953    3.054387   -0.932572
     30          1           0        0.773892    3.891549   -0.690424
     31          6           0        4.858312   -0.786720    0.279283
     32          1           0        5.243054    0.197708    0.580811
     33          1           0        4.819410   -1.439522    1.162792
     34          1           0        5.528053   -1.224462   -0.463260
 ---------------------------------------------------------------------

 SCF Done:  E(RB3LYP) =  -768.327597453     A.U. after    1 cycles

 The electronic state is 1-A.
 Alpha  occ. eigenvalues --  -19.33050 -19.21584 -19.19557 -19.19212 -19.18181
 Alpha  occ. eigenvalues --  -10.39711 -10.32056 -10.31903 -10.29922 -10.29901
 Alpha  occ. eigenvalues --  -10.27750 -10.26385 -10.25367 -10.24927 -10.24553
 Alpha  occ. eigenvalues --   -1.21664  -1.10116  -1.08351  -1.06689  -1.06444
 Alpha  occ. eigenvalues --   -0.87296  -0.86021  -0.77473  -0.75391  -0.73497
 Alpha  occ. eigenvalues --   -0.71743  -0.68612  -0.68303  -0.65554  -0.62846
 Alpha  occ. eigenvalues --   -0.60338  -0.59061  -0.55774  -0.54977  -0.53819
 Alpha  occ. eigenvalues --   -0.52415  -0.51731  -0.51231  -0.50102  -0.49136
 Alpha  occ. eigenvalues --   -0.48889  -0.48040  -0.46256  -0.45981  -0.45340
 Alpha  occ. eigenvalues --   -0.43986  -0.42654  -0.42510  -0.42046  -0.41291
 Alpha  occ. eigenvalues --   -0.39488  -0.37734  -0.36478  -0.35342  -0.34478
 Alpha  occ. eigenvalues --   -0.32728  -0.30292  -0.29180  -0.28720
 Alpha virt. eigenvalues --   -0.15215  -0.00120   0.04650   0.05033   0.05952
 Alpha virt. eigenvalues --    0.06978   0.07118   0.08328   0.09130   0.10790
 Alpha virt. eigenvalues --    0.11029   0.11529   0.12015   0.12554   0.13248

 Mulliken charges:
               1
     1  C    0.105836
     2  C    0.036987
     3  C    0.300065
     4  C    0.051995
     5  C    0.095156
     6  H    0.276015
     7  H    0.236548
     8  H    0.180346
     9  H    0.237145
    10  H    0.193570
    11  O   -0.304112
    12  O   -0.471234
    13  O   -0.484971
    14  O   -0.476124
    15  C   -0.019798
    16  H    0.166006
    17  H    0.186655
    18  O   -0.481703
    19  C   -0.236238
    20  H    0.182419
    21  H    0.199438
    22  H    0.173218
    23  C   -0.224988
    24  H    0.171736
    25  H    0.182673
    26  H    0.160424
    27  C   -0.239826
    28  H    0.161432
    29  H    0.173123
    30  H    0.191311
    31  C   -0.212229
    32  H    0.156403
    33  H    0.154288
    34  H    0.178437
 Sum of Mulliken charges =   1.00000

 Dipole moment (field-independent basis, Debye):
    X=             -1.7333    Y=             -4.6062    Z=             -0.2065  Tot=              4.9258
 Quadrupole moment (field-independent basis, Debye-Ang):
   XX=            -57.6923   YY=            -67.7854   ZZ=            -85.2712
   XY=              6.1230   XZ=              3.0984   YZ=             -8.0006

  Exact polarizability: 176.708   4.156 149.605  -3.107  -1.387 113.349
 Approx polarizability: 183.069   2.670 164.800  -3.301   2.554 144.994

                      1                      2                      3
                      A                      A                      A
 Frequencies --     36.9941                50.2799                63.6287
 Red. masses --      2.9903                 2.1976                 3.3536
 Frc consts  --      0.0024                 0.0033                 0.0080
 IR Inten    --      0.5921                 2.7664                 1.7619

                      4                      5                      6
                      A                      A                      A
 Frequencies --     77.7026                88.1474               106.2622
 Red. masses --      2.8283                 2.5723                 2.9461
 Frc consts  --      0.0101                 0.0118                 0.0196
 IR Inten    --      0.9458                 9.6405                 3.8282

                      7                      8                      9
                      A                      A                      A
 Frequencies --    127.4248               138.4430               163.1785
 Red. masses --      2.5666                 3.0831                 1.4796
 Frc consts  --      0.0246                 0.0348                 0.0232
 IR Inten    --      7.4881                 2.3440                 4.6379

                     10                     11                     12
                      A                      A                      A
 Frequencies --    176.2968               192.3424               205.9308
 Red. masses --      1.7884                 2.6767                 1.4521
 Frc consts  --      0.0327                 0.0583                 0.0363
 IR Inten    --      4.3383                 4.5734                 0.7677

                     13                     14                     15
                      A                      A                      A
 Frequencies --    220.0221               243.0223               254.6121
 Red. masses --      1.3529                 1.8906                 2.5051
 Frc consts  --      0.0386                 0.0658                 0.0957
 IR Inten    --      6.4328                 9.6888                 0.6576

                     16                     17                     18
                      A                      A                      A
 Frequencies --    270.4549               292.4279               306.6391
 Red. masses --      4.0634                 3.7056                 4.1952
 Frc consts  --      0.1751                 0.1867                 0.2324
 IR Inten    --      2.9749                 2.2774                17.5170

                     19                     20                     21
                      A                      A                      A
 Frequencies --    329.1874               360.1238               402.6190
 Red. masses --      4.1895                 3.3272                 4.6978
 Frc consts  --      0.2675                 0.2542                 0.4487
 IR Inten    --      3.2313                 1.7240                 1.6676

                     22                     23                     24
                      A                      A                      A
 Frequencies --    435.4623               480.1861               512.8055
 Red. masses --      4.0816                 4.5380                 3.3948
 Frc consts  --      0.4560                 0.6165                 0.5260
 IR Inten    --     17.1737                 2.9964                33.4115

                     25                     26                     27
                      A                      A                      A
 Frequencies --    545.2818               587.5710               626.4733
 Red. masses --      3.2810                 3.7425                 3.2395
 Frc consts  --      0.5748                 0.7613                 0.7491
 IR Inten    --      8.7544                17.0087                 7.1029

                     28                     29                     30
                      A                      A                      A
 Frequencies --    716.5417               732.0951               856.9730
 Red. masses --      3.6236                 4.4912                 1.9321
 Frc consts  --      1.0962                 1.4182                 0.8360
 IR Inten    --     79.7354                53.8384                10.7489

                     31                     32                     33
                      A                      A                      A
 Frequencies --    919.6975               972.3789               978.4260
 Red. masses --      4.7324                 4.2836                 4.0690
 Frc consts  --      2.3584                 2.3863                 2.2950
 IR Inten    --     70.2921                 0.9272                17.2079

                     34                     35                     36
                      A                      A                      A
 Frequencies --    987.1040              1020.4029              1060.6548
 Red. masses --      4.0468                 2.8525                 2.5598
 Frc consts  --      2.3232                 1.7499                 1.6967
 IR Inten    --     46.5324                28.3673                15.0564

                     37                     38                     39
                      A                      A                      A
 Frequencies --   1077.5994              1082.9618              1102.5735
 Red. masses --      3.7475                 3.0991                 3.3933
 Frc consts  --      2.5639                 2.1415                 2.4305
 IR Inten    --    163.6745                65.5512                 4.5311

                     40                     41                     42
                      A                      A                      A
 Frequencies --   1141.2847              1151.7258              1161.2464
 Red. masses --      2.3152                 3.8398                 3.8219
 Frc consts  --      1.7768                 3.0009                 3.0365
 IR Inten    --      7.6106               176.2400               100.6170

                     43                     44                     45
                      A                      A                      A
 Frequencies --   1162.8831              1169.9560              1181.8673
 Red. masses --      3.3500                 3.0017                 1.2672
 Frc consts  --      2.6691                 2.4208                 1.0429
 IR Inten    --    321.5659                48.0853                 2.8779

                     46                     47                     48
                      A                      A                      A
 Frequencies --   1186.8967              1191.0248              1193.6434
 Red. masses --      1.4553                 1.2994                 1.2790
 Frc consts  --      1.2079                 1.0861                 1.0737
 IR Inten    --     27.0287                 3.9846                 4.3902

                     49                     50                     51
                      A                      A                      A
 Frequencies --   1218.1962              1224.8506              1233.3260
 Red. masses --      1.4866                 1.6047                 1.6369
 Frc consts  --      1.2998                 1.4184                 1.4670
 IR Inten    --    109.3090                11.8992                24.7304

                     52                     53                     54
                      A                      A                      A
 Frequencies --   1241.0025              1262.2245              1274.1200
 Red. masses --      1.7156                 1.4309                 1.3708
 Frc consts  --      1.5567                 1.3432                 1.3112
 IR Inten    --     19.9667                12.8719                 8.9870

                     55                     56                     57
                      A                      A                      A
 Frequencies --   1291.6524              1340.7662              1350.0646
 Red. masses --      1.3261                 1.2156                 1.2738
 Frc consts  --      1.3036                 1.2875                 1.3679
 IR Inten    --     32.2660                54.3076                19.7692

                     58                     59                     60
                      A                      A                      A
 Frequencies --   1378.9835              1397.4550              1423.2905
 Red. masses --      1.2209                 1.2741                 1.2557
 Frc consts  --      1.3679                 1.4660                 1.4987
 IR Inten    --      4.0035                 3.7946                23.9290

                     61                     62                     63
                      A                      A                      A
 Frequencies --   1431.8929              1445.9310              1463.3896
 Red. masses --      1.3234                 1.4654                 1.1856
 Frc consts  --      1.5987                 1.8051                 1.4959
 IR Inten    --     11.6530                66.4909                12.4908

                     64                     65                     66
                      A                      A                      A
 Frequencies --   1498.0512              1498.5171              1501.0530
 Red. masses --      1.1357                 1.1396                 1.1081
 Frc consts  --      1.5016                 1.5078                 1.4711
 IR Inten    --      6.9025                 2.9447                 3.6488

                     67                     68                     69
                      A                      A                      A
 Frequencies --   1505.3580              1508.5785              1509.5135
 Red. masses --      1.1348                 1.0769                 1.0465
 Frc consts  --      1.5151                 1.4439                 1.4049
 IR Inten    --      0.7591                 3.0181                 8.7781

                     70                     71                     72
                      A                      A                      A
 Frequencies --   1519.4903              1519.8266              1521.8749
 Red. masses --      1.0482                 1.0698                 1.0481
 Frc consts  --      1.4259                 1.4559                 1.4303
 IR Inten    --     11.1749                17.9537                 8.9794

                     73                     74                     75
                      A                      A                      A
 Frequencies --   1527.8074              1530.8789              1533.6560
 Red. masses --      1.0693                 1.0642                 1.0522
 Frc consts  --      1.4705                 1.4694                 1.4582
 IR Inten    --     12.5446                22.2394                13.0711

                     76                     77                     78
                      A                      A                      A
 Frequencies --   1538.5134              1647.1553              3002.9437
 Red. masses --      1.0984                 6.7170                 1.0547
 Frc consts  --      1.5319                10.7373                 5.6037
 IR Inten    --      3.1597               321.6905                37.1368

                     79                     80                     81
                      A                      A                      A
 Frequencies --   3004.3793              3018.9845              3039.2599
 Red. masses --      1.0786                 1.0369                 1.0479
 Frc consts  --      5.7360                 5.5683                 5.7028
 IR Inten    --      8.1470                66.0147                45.7828

                     82                     83                     84
                      A                      A                      A
 Frequencies --   3042.5234              3044.4273              3045.3457
 Red. masses --      1.1014                 1.0491                 1.0338
 Frc consts  --      6.0073                 5.7290                 5.6486
 IR Inten    --     44.5752                 3.9794                46.2321

                     85                     86                     87
                      A                      A                      A
 Frequencies --   3048.2537              3072.5228              3082.2961
 Red. masses --      1.0637                 1.1067                 1.0846
 Frc consts  --      5.8233                 6.1558                 6.0711
 IR Inten    --     50.3998                57.8726                21.2084

                     88                     89                     90
                      A                      A                      A
 Frequencies --   3112.2988              3115.5141              3122.4098
 Red. masses --      1.1073                 1.1031                 1.0962
 Frc consts  --      6.3194                 6.3085                 6.2970
 IR Inten    --     36.8868                50.8745                46.1044

                     91                     92                     93
                      A                      A                      A
 Frequencies --   3158.6644              3158.8957              3168.2806
 Red. masses --      1.0890                 1.0964                 1.1022
 Frc consts  --      6.4016                 6.4458                 6.5184
 IR Inten    --     11.3558                19.1854                17.0100

                     94                     95                     96
                      A                      A                      A
 Frequencies --   3168.8295              3183.1048              3193.5846
 Red. masses --      1.1050                 1.1023                 1.0935
 Frc consts  --      6.5377                 6.5803                 6.5712
 IR Inten    --     28.5837                15.3246                 0.7004

 - Thermochemistry -
 -------------------
 Temperature   298.150 Kelvin.  Pressure   1.00000 Atm.
 Atom     1 has atomic number  6 and mass  12.00000

 Molecular mass:   219.12325 amu.
 Principal axes and moments of inertia in atomic units:
                           1         2         3
     Eigenvalues --  2089.843684789.367046469.04700
           X            0.99998   0.00446   0.00481
           Y           -0.00432   0.99956  -0.02926
           Z           -0.00494   0.02924   0.99956
 This molecule is an asymmetric top.
 Rotational symmetry number  1.
 Warning -- assumption of classical behavior for rotation
           may cause significant error
 Rotational temperatures (Kelvin)      0.04145     0.01808     0.01339
 Rotational constants (GHZ):           0.86358     0.37682     0.27898
 Zero-point vibrational energy     774351.1 (Joules/Mol)
                                  185.07436 (Kcal/Mol)
 Warning -- explicit consideration of  26 degrees of freedom as
           vibrations may cause significant error
 Vibrational temperatures:     53.23    72.34    91.55   111.80   126.82
          (Kelvin)            152.89   183.34   199.19   234.78   253.65
                              276.74   296.29   316.56   349.65   366.33
                              389.12   420.74   441.19   473.63   518.14
                              579.28   626.53   690.88   737.81   784.54
                              845.38   901.36  1030.94  1053.32  1232.99
                             1323.24  1399.04  1407.74  1420.22  1468.13
                             1526.05  1550.43  1558.14  1586.36  1642.05
                             1657.08  1670.77  1673.13  1683.31  1700.44
                             1707.68  1713.62  1717.39  1752.71  1762.29
                             1774.48  1785.53  1816.06  1833.17  1858.40
                             1929.06  1942.44  1984.05  2010.63  2047.80
                             2060.17  2080.37  2105.49  2155.36  2156.03
                             2159.68  2165.87  2170.51  2171.85  2186.21
                             2186.69  2189.64  2198.17  2202.59  2206.59
                             2213.58  2369.89  4320.57  4322.63  4343.65
                             4372.82  4377.51  4380.25  4381.57  4385.76
                             4420.68  4434.74  4477.90  4482.53  4492.45
                             4544.61  4544.95  4558.45  4559.24  4579.78
                             4594.86

 Zero-point correction=                           0.294935 (Hartree/Particle)
 Thermal correction to Energy=                    0.312274
 Thermal correction to Enthalpy=                  0.313218
 Thermal correction to Gibbs Free Energy=         0.249362
 Sum of electronic and zero-point Energies=           -768.032663
 Sum of electronic and thermal Energies=              -768.015323
 Sum of electronic and thermal Enthalpies=            -768.014379
 Sum of electronic and thermal Free Energies=         -768.078236

                     E (Thermal)             CV                S
                      KCal/Mol        Cal/Mol-Kelvin    Cal/Mol-Kelvin
 Total                  195.955             61.593            134.398
 Electronic               0.000              0.000              0.000
 Translational            0.889              2.981             42.056
 Rotational               0.889              2.981             32.537
 Vibrational            194.178             55.631             59.804
 Vibration     1          0.594              1.982              5.414
 Vibration     2          0.595              1.977              4.806
 Vibration     3          0.597              1.972              4.341
 Vibration     4          0.599              1.964              3.948
 Vibration     5          0.601              1.958              3.701
 Vibration     6          0.605              1.944              3.336
 Vibration     7          0.611              1.926              2.985
 Vibration     8          0.614              1.915              2.825
 Vibration     9          0.623              1.888              2.513
 Vibration    10          0.628              1.872              2.367
 Vibration    11          0.634              1.850              2.205
 Vibration    12          0.640              1.831              2.079
 Vibration    13          0.647              1.811              1.959
 Vibration    14          0.659              1.774              1.781
 Vibration    15          0.665              1.755              1.698
 Vibration    16          0.674              1.728              1.593
 Vibration    17          0.688              1.688              1.460
 Vibration    18          0.697              1.661              1.380
 Vibration    19          0.712              1.617              1.264
 Vibration    20          0.735              1.554              1.122
 Vibration    21          0.768              1.464              0.953
 Vibration    22          0.796              1.393              0.841
 Vibration    23          0.837              1.294              0.710
 Vibration    24          0.868              1.222              0.627
 Vibration    25          0.900              1.150              0.554
 Vibration    26          0.945              1.058              0.472

                           ! Non-Optimized Parameters !
 Normal termination of Gaussian 16 at Fri May 24 08:53:25 2019.
