 Gaussian 16, Revision A.03,
 Gaussian 16:  ES64L-G16RevA.03 25-Dec-2016

 -------------------------------------------------------------------
 #p b3lyp 6-31g* opt freq=noraman scrf=(pcm,solvent=tetrahydrofuran)
 -------------------------------------------------------------------

 -----
 title
 -----
 Symbolic Z-matrix:
 Charge =  1 Multiplicity = 1

 SCF Done:  E(RB3LYP) =  -768.328650385     A.U. after   15 cycles
 Optimization completed.
    -- Stationary point found.
 Normal termination of Gaussian 16 at Fri May 24 08:45:25 2019.

 --------------------------------------------------------------------
 #P Geom=AllCheck Guess=TCheck SCRF=Check GenChk RB3LYP/6-31G(d) Freq
 --------------------------------------------------------------------

 Structure from the checkpoint file:  "/scratch/Gau-32324.chk"
 -----
 title
 -----
 Charge =  1 Multiplicity = 1

                         Standard orientation:
 ---------------------------------------------------------------------
 Center     Atomic      Atomic             Coordinates (Angstroms)
 Number     Number       Type             X           Y           Z
 ---------------------------------------------------------------------
      1          6           0       -1.122664    0.413263   -0.282113
      2          6           0       -1.699180   -0.934430    0.205086
      3          6           0       -0.911828   -2.064392   -0.358082
      4          6           0        1.137542   -0.748852   -0.634588
      5          6           0        0.393152    0.455505   -0.021505
      6          1           0       -1.385583   -3.032956   -0.525915
      7          1           0       -1.554293   -0.988738    1.300865
      8          1           0       -1.308119    0.498772   -1.360351
      9          1           0        1.356479   -0.550569   -1.684859
     10          1           0        0.554697    0.470764    1.063683
     11          8           0        0.290521   -1.999183   -0.715221
     12          8           0       -3.035736   -1.126527   -0.160700
     13          8           0       -1.762665    1.442389    0.428648
     14          8           0        0.920472    1.615852   -0.628386
     15          6           0        2.392130   -1.220330    0.104416
     16          1           0        2.775343   -2.131394   -0.379123
     17          1           0        2.137726   -1.467619    1.148299
     18          8           0        3.318702   -0.166078    0.033607
     19          6           0       -3.981878   -0.988167    0.911773
     20          1           0       -3.834966   -1.768565    1.667809
     21          1           0       -3.895593    0.000668    1.372399
     22          1           0       -4.966679   -1.102603    0.457480
     23          6           0       -2.297604    2.494205   -0.383189
     24          1           0       -2.749310    3.209126    0.306885
     25          1           0       -3.067068    2.109804   -1.063907
     26          1           0       -1.507728    2.986859   -0.959290
     27          6           0        1.531835    2.548678    0.269524
     28          1           0        2.393138    2.096297    0.770900
     29          1           0        1.866659    3.383681   -0.349007
     30          1           0        0.809679    2.911345    1.009925
     31          6           0        4.545340   -0.476572    0.688607
     32          1           0        5.191323    0.395073    0.571029
     33          1           0        4.386613   -0.672538    1.758129
     34          1           0        5.026267   -1.352472    0.231894
 ---------------------------------------------------------------------

 SCF Done:  E(RB3LYP) =  -768.328650386     A.U. after    1 cycles

 The electronic state is 1-A.
 Alpha  occ. eigenvalues --  -19.33208 -19.20622 -19.19063 -19.18745 -19.18698
 Alpha  occ. eigenvalues --  -10.39783 -10.32026 -10.31675 -10.29198 -10.29172
 Alpha  occ. eigenvalues --  -10.27947 -10.25646 -10.24801 -10.24774 -10.24383
 Alpha  occ. eigenvalues --   -1.21761  -1.09531  -1.07826  -1.06974  -1.05891
 Alpha  occ. eigenvalues --   -0.87235  -0.85980  -0.77354  -0.74620  -0.73328
 Alpha  occ. eigenvalues --   -0.70790  -0.68244  -0.67246  -0.65866  -0.63071
 Alpha  occ. eigenvalues --   -0.60236  -0.58820  -0.55511  -0.54810  -0.53458
 Alpha  occ. eigenvalues --   -0.51879  -0.51328  -0.50697  -0.50444  -0.49014
 Alpha  occ. eigenvalues --   -0.48608  -0.47463  -0.46235  -0.45728  -0.45216
 Alpha  occ. eigenvalues --   -0.44464  -0.42276  -0.41992  -0.40899  -0.40222
 Alpha  occ. eigenvalues --   -0.39559  -0.37001  -0.35731  -0.35559  -0.35199
 Alpha  occ. eigenvalues --   -0.31860  -0.30712  -0.29129  -0.27561
 Alpha virt. eigenvalues --   -0.15329  -0.00890   0.04584   0.05729   0.07066
 Alpha virt. eigenvalues --    0.07742   0.07842   0.09428   0.09980   0.11115
 Alpha virt. eigenvalues --    0.11543   0.11842   0.12304   0.12679   0.13630

 Mulliken charges:
               1
     1  C    0.126631
     2  C    0.036434
     3  C    0.303181
     4  C    0.064015
     5  C    0.101863
     6  H    0.280312
     7  H    0.239381
     8  H    0.183427
     9  H    0.244737
    10  H    0.179117
    11  O   -0.316968
    12  O   -0.479958
    13  O   -0.489676
    14  O   -0.485679
    15  C   -0.024222
    16  H    0.174369
    17  H    0.162041
    18  O   -0.470397
    19  C   -0.231396
    20  H    0.169769
    21  H    0.181666
    22  H    0.190720
    23  C   -0.224611
    24  H    0.180134
    25  H    0.165562
    26  H    0.171027
    27  C   -0.224392
    28  H    0.169517
    29  H    0.177357
    30  H    0.161763
    31  C   -0.212212
    32  H    0.181412
    33  H    0.156335
    34  H    0.158741
 Sum of Mulliken charges =   1.00000

 Dipole moment (field-independent basis, Debye):
    X=             -1.2343    Y=             -5.1532    Z=              1.4571  Tot=              5.4957
 Quadrupole moment (field-independent basis, Debye-Ang):
   XX=            -57.5322   YY=            -65.8468   ZZ=            -83.6137
   XY=              0.3952   XZ=              1.3134   YZ=             -0.5781

  Exact polarizability: 173.173   1.639 152.328  -4.558   2.196 113.660
 Approx polarizability: 177.162   0.277 169.277  -7.103   3.316 144.245

                      1                      2                      3
                      A                      A                      A
 Frequencies --      9.8034                43.0812                53.4221
 Red. masses --      3.9574                 2.7124                 3.4727
 Frc consts  --      0.0002                 0.0030                 0.0058
 IR Inten    --      0.6125                 8.3800                 0.9201

                      4                      5                      6
                      A                      A                      A
 Frequencies --     68.2910                78.5158                87.3664
 Red. masses --      3.1753                 2.9916                 2.5137
 Frc consts  --      0.0087                 0.0109                 0.0113
 IR Inten    --      2.8351                 6.0882                 3.0370

                      7                      8                      9
                      A                      A                      A
 Frequencies --    111.6646               130.7569               143.0489
 Red. masses --      2.4772                 2.8429                 1.1457
 Frc consts  --      0.0182                 0.0286                 0.0138
 IR Inten    --     10.0430                 0.6716                 0.0827

                     10                     11                     12
                      A                      A                      A
 Frequencies --    151.2878               180.8987               186.9430
 Red. masses --      1.1904                 1.2232                 2.5687
 Frc consts  --      0.0161                 0.0236                 0.0529
 IR Inten    --      1.9815                 0.8177                 0.8150

                     13                     14                     15
                      A                      A                      A
 Frequencies --    212.7074               231.7305               259.5151
 Red. masses --      2.2783                 1.5760                 4.5350
 Frc consts  --      0.0607                 0.0499                 0.1800
 IR Inten    --      1.4407                 8.6625                 3.2730

                     16                     17                     18
                      A                      A                      A
 Frequencies --    268.3331               291.4434               296.1354
 Red. masses --      4.1743                 4.8648                 3.4228
 Frc consts  --      0.1771                 0.2435                 0.1769
 IR Inten    --     26.0657                 1.7624                 9.1708

                     19                     20                     21
                      A                      A                      A
 Frequencies --    341.6257               371.1379               394.3059
 Red. masses --      5.3325                 3.8609                 3.6436
 Frc consts  --      0.3667                 0.3133                 0.3338
 IR Inten    --      1.1701                 1.0766                 8.4670

                     22                     23                     24
                      A                      A                      A
 Frequencies --    434.9532               471.5256               499.8204
 Red. masses --      5.0784                 4.3178                 3.7781
 Frc consts  --      0.5661                 0.5656                 0.5561
 IR Inten    --      1.9644                 5.6791                22.7727

                     25                     26                     27
                      A                      A                      A
 Frequencies --    504.1283               544.4760               583.3194
 Red. masses --      3.6058                 3.0860                 2.9747
 Frc consts  --      0.5399                 0.5390                 0.5964
 IR Inten    --     28.9347                 7.7957                 9.1318

                     28                     29                     30
                      A                      A                      A
 Frequencies --    712.3192               794.5389               857.0863
 Red. masses --      3.8773                 6.7932                 1.8980
 Frc consts  --      1.1591                 2.5267                 0.8215
 IR Inten    --     60.3718                82.3698                25.2255

                     31                     32                     33
                      A                      A                      A
 Frequencies --    935.4531               954.2343               988.7352
 Red. masses --      2.0111                 4.6637                 4.3464
 Frc consts  --      1.0369                 2.5020                 2.5035
 IR Inten    --      4.2561                 3.5140                41.9362

                     34                     35                     36
                      A                      A                      A
 Frequencies --    997.4191              1027.1779              1066.0307
 Red. masses --      4.0202                 5.1761                 2.4494
 Frc consts  --      2.3564                 3.2177                 1.6400
 IR Inten    --     18.4714                85.9128                74.8538

                     37                     38                     39
                      A                      A                      A
 Frequencies --   1076.3344              1101.1601              1123.1698
 Red. masses --      4.1293                 2.9250                 2.7522
 Frc consts  --      2.8185                 2.0897                 2.0456
 IR Inten    --     34.9950                36.5154               118.1872

                     40                     41                     42
                      A                      A                      A
 Frequencies --   1136.5378              1145.9340              1153.7149
 Red. masses --      2.7765                 3.5069                 3.0108
 Frc consts  --      2.1131                 2.7133                 2.3612
 IR Inten    --     43.7786                31.7247               167.8984

                     43                     44                     45
                      A                      A                      A
 Frequencies --   1163.4411              1178.5130              1180.4357
 Red. masses --      3.9437                 1.4540                 1.2943
 Frc consts  --      3.1452                 1.1898                 1.0626
 IR Inten    --    322.0985                48.3509                10.8899

                     46                     47                     48
                      A                      A                      A
 Frequencies --   1180.6915              1183.3459              1189.3013
 Red. masses --      1.4349                 1.8595                 1.3778
 Frc consts  --      1.1786                 1.5342                 1.1482
 IR Inten    --     45.9511               103.7118                39.0503

                     49                     50                     51
                      A                      A                      A
 Frequencies --   1213.7062              1225.6265              1230.2884
 Red. masses --      1.4172                 1.6916                 1.5509
 Frc consts  --      1.2300                 1.4972                 1.3830
 IR Inten    --     55.2925                 3.3628                16.6769

                     52                     53                     54
                      A                      A                      A
 Frequencies --   1235.7232              1240.3142              1270.2584
 Red. masses --      1.7159                 1.4160                 1.4092
 Frc consts  --      1.5438                 1.2835                 1.3397
 IR Inten    --     35.8462                13.1657                32.8336

                     55                     56                     57
                      A                      A                      A
 Frequencies --   1293.7610              1305.5020              1333.8988
 Red. masses --      1.2978                 1.1918                 1.2613
 Frc consts  --      1.2799                 1.1968                 1.3222
 IR Inten    --     33.1484                19.9008                 5.6749

                     58                     59                     60
                      A                      A                      A
 Frequencies --   1345.1712              1373.7960              1406.0078
 Red. masses --      1.2731                 1.3823                 1.3510
 Frc consts  --      1.3573                 1.5371                 1.5735
 IR Inten    --      9.9001                 1.5953                21.9322

                     61                     62                     63
                      A                      A                      A
 Frequencies --   1408.4925              1436.8670              1446.4314
 Red. masses --      1.4424                 1.2056                 1.3620
 Frc consts  --      1.6860                 1.4665                 1.6788
 IR Inten    --     25.5239                47.6177                35.5661

                     64                     65                     66
                      A                      A                      A
 Frequencies --   1492.7259              1493.9826              1499.6517
 Red. masses --      1.1572                 1.1511                 1.1644
 Frc consts  --      1.5193                 1.5138                 1.5429
 IR Inten    --      3.5128                 0.1960                 0.6980

                     67                     68                     69
                      A                      A                      A
 Frequencies --   1500.0563              1508.4309              1508.9054
 Red. masses --      1.1549                 1.0472                 1.0511
 Frc consts  --      1.5311                 1.4039                 1.4100
 IR Inten    --      0.6139                 9.1133                10.6394

                     70                     71                     72
                      A                      A                      A
 Frequencies --   1509.5415              1513.8896              1526.8019
 Red. masses --      1.0518                 1.0506                 1.0629
 Frc consts  --      1.4121                 1.4186                 1.4599
 IR Inten    --      2.3883                 3.2611                19.0279

                     73                     74                     75
                      A                      A                      A
 Frequencies --   1527.0367              1528.0428              1530.6693
 Red. masses --      1.0534                 1.0521                 1.0508
 Frc consts  --      1.4472                 1.4474                 1.4505
 IR Inten    --      7.8627                12.0359                 4.9023

                     76                     77                     78
                      A                      A                      A
 Frequencies --   1557.3479              1643.4705              2965.9568
 Red. masses --      1.0868                 7.1522                 1.0785
 Frc consts  --      1.5530                11.3818                 5.5897
 IR Inten    --      1.8927               315.5510                20.8178

                     79                     80                     81
                      A                      A                      A
 Frequencies --   2993.4827              3022.2658              3043.5062
 Red. masses --      1.0600                 1.0356                 1.1006
 Frc consts  --      5.5963                 5.5733                 6.0068
 IR Inten    --     38.2955                68.4695                70.9970

                     82                     83                     84
                      A                      A                      A
 Frequencies --   3045.5677              3049.6418              3050.5564
 Red. masses --      1.0338                 1.0383                 1.0349
 Frc consts  --      5.6496                 5.6896                 5.6740
 IR Inten    --     55.6318                46.0851                44.1967

                     85                     86                     87
                      A                      A                      A
 Frequencies --   3059.9015              3074.8716              3078.3025
 Red. masses --      1.0780                 1.0846                 1.1068
 Frc consts  --      5.9469                 6.0419                 6.1792
 IR Inten    --     12.8606                25.4446                52.9255

                     88                     89                     90
                      A                      A                      A
 Frequencies --   3118.2782              3126.2545              3126.7709
 Red. masses --      1.1050                 1.1056                 1.1046
 Frc consts  --      6.3303                 6.3666                 6.3630
 IR Inten    --     42.0334                33.1364                27.0790

                     91                     92                     93
                      A                      A                      A
 Frequencies --   3154.8379              3162.8873              3163.3351
 Red. masses --      1.0872                 1.1001                 1.1043
 Frc consts  --      6.3758                 6.4844                 6.5105
 IR Inten    --      1.0471                16.0881                31.7994

                     94                     95                     96
                      A                      A                      A
 Frequencies --   3165.9553              3179.2212              3200.7928
 Red. masses --      1.1038                 1.1041                 1.0947
 Frc consts  --      6.5185                 6.5751                 6.6076
 IR Inten    --     23.8059                18.4842                 1.5968

 - Thermochemistry -
 -------------------
 Temperature   298.150 Kelvin.  Pressure   1.00000 Atm.
 Atom     1 has atomic number  6 and mass  12.00000

 Molecular mass:   219.12325 amu.
 Principal axes and moments of inertia in atomic units:
                           1         2         3
     Eigenvalues --  1985.434194664.618426181.67494
           X            0.99996  -0.00780   0.00339
           Y            0.00784   0.99990  -0.01211
           Z           -0.00330   0.01214   0.99992
 This molecule is an asymmetric top.
 Rotational symmetry number  1.
 Warning -- assumption of classical behavior for rotation
           may cause significant error
 Rotational temperatures (Kelvin)      0.04362     0.01857     0.01401
 Rotational constants (GHZ):           0.90899     0.38690     0.29195
 Zero-point vibrational energy     771499.2 (Joules/Mol)
                                  184.39274 (Kcal/Mol)
 Warning -- explicit consideration of  27 degrees of freedom as
           vibrations may cause significant error
 Vibrational temperatures:     14.10    61.98    76.86    98.26   112.97
          (Kelvin)            125.70   160.66   188.13   205.82   217.67
                              260.27   268.97   306.04   333.41   373.38
                              386.07   419.32   426.07   491.52   533.98
                              567.32   625.80   678.42   719.13   725.33
                              783.38   839.27  1024.87  1143.16  1233.16
                             1345.91  1372.93  1422.57  1435.06  1477.88
                             1533.78  1548.61  1584.32  1615.99  1635.22
                             1648.74  1659.94  1673.93  1695.62  1698.38
                             1698.75  1702.57  1711.14  1746.25  1763.40
                             1770.11  1777.93  1784.54  1827.62  1861.43
                             1878.33  1919.18  1935.40  1976.59  2022.93
                             2026.51  2067.33  2081.09  2147.70  2149.51
                             2157.66  2158.25  2170.30  2170.98  2171.89
                             2178.15  2196.73  2197.07  2198.51  2202.29
                             2240.68  2364.59  4267.35  4306.95  4348.37
                             4378.93  4381.89  4387.75  4389.07  4402.52
                             4424.05  4428.99  4486.51  4497.98  4498.73
                             4539.11  4550.69  4551.33  4555.10  4574.19
                             4605.23

 Zero-point correction=                           0.293849 (Hartree/Particle)
 Thermal correction to Energy=                    0.311625
 Thermal correction to Enthalpy=                  0.312569
 Thermal correction to Gibbs Free Energy=         0.246052
 Sum of electronic and zero-point Energies=           -768.034802
 Sum of electronic and thermal Energies=              -768.017026
 Sum of electronic and thermal Enthalpies=            -768.016081
 Sum of electronic and thermal Free Energies=         -768.082598

                     E (Thermal)             CV                S
                      KCal/Mol        Cal/Mol-Kelvin    Cal/Mol-Kelvin
 Total                  195.548             62.033            139.996
 Electronic               0.000              0.000              0.000
 Translational            0.889              2.981             42.056
 Rotational               0.889              2.981             32.415
 Vibrational            193.770             56.072             65.525
 Vibration     1          0.593              1.987              8.050
 Vibration     2          0.595              1.980              5.112
 Vibration     3          0.596              1.976              4.687
 Vibration     4          0.598              1.969              4.202
 Vibration     5          0.600              1.964              3.928
 Vibration     6          0.601              1.958              3.718
 Vibration     7          0.607              1.940              3.240
 Vibration     8          0.612              1.923              2.935
 Vibration     9          0.616              1.910              2.763
 Vibration    10          0.619              1.901              2.656
 Vibration    11          0.630              1.866              2.319
 Vibration    12          0.632              1.858              2.258
 Vibration    13          0.644              1.822              2.020
 Vibration    14          0.653              1.792              1.865
 Vibration    15          0.668              1.747              1.665
 Vibration    16          0.673              1.731              1.607
 Vibration    17          0.687              1.690              1.466
 Vibration    18          0.690              1.681              1.439
 Vibration    19          0.721              1.592              1.205
 Vibration    20          0.743              1.531              1.075
 Vibration    21          0.761              1.482              0.984
 Vibration    22          0.796              1.394              0.843
 Vibration    23          0.828              1.313              0.733
 Vibration    24          0.855              1.250              0.659
 Vibration    25          0.859              1.241              0.648
 Vibration    26          0.900              1.152              0.556
 Vibration    27          0.940              1.067              0.479

                           ! Non-Optimized Parameters !
 Normal termination of Gaussian 16 at Fri May 24 09:25:06 2019.
