 Gaussian 16, Revision A.03,
 Gaussian 16:  ES64L-G16RevA.03 25-Dec-2016

 -------------------------------------------------------------------
 #p b3lyp 6-31g* opt freq=noraman scrf=(pcm,solvent=tetrahydrofuran)
 -------------------------------------------------------------------

 -----
 title
 -----
 Symbolic Z-matrix:
 Charge =  1 Multiplicity = 1

 SCF Done:  E(RB3LYP) =  -768.322870726     A.U. after   14 cycles
 Optimization completed.
    -- Stationary point found.
 Normal termination of Gaussian 16 at Fri May 24 08:38:51 2019.

 --------------------------------------------------------------------
 #P Geom=AllCheck Guess=TCheck SCRF=Check GenChk RB3LYP/6-31G(d) Freq
 --------------------------------------------------------------------

 Structure from the checkpoint file:  "/scratch/Gau-60971.chk"
 -----
 title
 -----
 Charge =  1 Multiplicity = 1

                         Standard orientation:
 ---------------------------------------------------------------------
 Center     Atomic      Atomic             Coordinates (Angstroms)
 Number     Number       Type             X           Y           Z
 ---------------------------------------------------------------------
      1          6           0       -0.928272    0.597087   -0.569621
      2          6           0       -1.799784   -0.527263    0.059920
      3          6           0       -1.192458   -1.850197   -0.261444
      4          6           0        1.087325   -0.988353   -0.374160
      5          6           0        0.539103    0.426531   -0.114563
      6          1           0       -1.822429   -2.729192   -0.405551
      7          1           0       -1.784696   -0.424260    1.161266
      8          1           0       -0.963005    0.480062   -1.658020
      9          1           0        1.515915   -1.019864   -1.376369
     10          1           0        0.626948    0.653322    0.955198
     11          8           0        0.029847   -2.054531   -0.468434
     12          8           0       -3.098655   -0.488732   -0.461299
     13          8           0       -1.427622    1.886611   -0.333269
     14          8           0        1.385138    1.268649   -0.871098
     15          6           0        2.069459   -1.515914    0.694796
     16          1           0        2.478091   -2.481375    0.365945
     17          1           0        1.522122   -1.668914    1.630534
     18          8           0        3.077897   -0.578035    0.963206
     19          6           0       -4.127206   -0.966692    0.417359
     20          1           0       -4.015842   -2.037763    0.628185
     21          1           0       -4.123756   -0.408321    1.361343
     22          1           0       -5.068709   -0.800514   -0.106456
     23          6           0       -1.772443    2.239132    1.006536
     24          1           0       -2.000225    3.305771    0.980746
     25          1           0       -2.665630    1.699126    1.345035
     26          1           0       -0.952750    2.070881    1.715140
     27          6           0        1.774031    2.484312   -0.224702
     28          1           0        2.483398    2.968187   -0.898658
     29          1           0        0.915066    3.144184   -0.067959
     30          1           0        2.267866    2.273425    0.731701
     31          6           0        4.123642   -0.528957   -0.010301
     32          1           0        3.777796   -0.091336   -0.954042
     33          1           0        4.903511    0.107415    0.411968
     34          1           0        4.533090   -1.530644   -0.195771
 ---------------------------------------------------------------------

 SCF Done:  E(RB3LYP) =  -768.322870726     A.U. after    1 cycles

 The electronic state is 1-A.
 Alpha  occ. eigenvalues --  -19.33335 -19.21361 -19.19559 -19.19007 -19.18927
 Alpha  occ. eigenvalues --  -10.39842 -10.32187 -10.31938 -10.29714 -10.29424
 Alpha  occ. eigenvalues --  -10.28100 -10.26425 -10.25631 -10.24666 -10.24649
 Alpha  occ. eigenvalues --   -1.21942  -1.10143  -1.08181  -1.07036  -1.06256
 Alpha  occ. eigenvalues --   -0.87145  -0.86011  -0.77278  -0.75316  -0.74348
 Alpha  occ. eigenvalues --   -0.71666  -0.69443  -0.67498  -0.65481  -0.62580
 Alpha  occ. eigenvalues --   -0.60664  -0.59370  -0.55819  -0.55159  -0.53771
 Alpha  occ. eigenvalues --   -0.52527  -0.51947  -0.50815  -0.50385  -0.49043
 Alpha  occ. eigenvalues --   -0.48708  -0.47844  -0.46473  -0.46025  -0.45418
 Alpha  occ. eigenvalues --   -0.44250  -0.43877  -0.42004  -0.41798  -0.40725
 Alpha  occ. eigenvalues --   -0.39817  -0.37962  -0.35837  -0.34818  -0.34707
 Alpha  occ. eigenvalues --   -0.31978  -0.31624  -0.29727  -0.28034
 Alpha virt. eigenvalues --   -0.15363  -0.00613   0.03773   0.04612   0.06359
 Alpha virt. eigenvalues --    0.06696   0.07813   0.08694   0.09728   0.10102
 Alpha virt. eigenvalues --    0.10865   0.11654   0.11942   0.12472   0.13004

 Mulliken charges:
               1
     1  C    0.133983
     2  C    0.011803
     3  C    0.295092
     4  C    0.053430
     5  C    0.090885
     6  H    0.277819
     7  H    0.228632
     8  H    0.195020
     9  H    0.243574
    10  H    0.179125
    11  O   -0.309927
    12  O   -0.464678
    13  O   -0.469537
    14  O   -0.484898
    15  C   -0.044425
    16  H    0.179707
    17  H    0.184164
    18  O   -0.460603
    19  C   -0.237043
    20  H    0.170276
    21  H    0.176769
    22  H    0.201830
    23  C   -0.246547
    24  H    0.195467
    25  H    0.167655
    26  H    0.164405
    27  C   -0.226481
    28  H    0.180467
    29  H    0.169730
    30  H    0.164998
    31  C   -0.226633
    32  H    0.164563
    33  H    0.181686
    34  H    0.159691
 Sum of Mulliken charges =   1.00000

 Dipole moment (field-independent basis, Debye):
    X=             -2.6694    Y=             -5.4884    Z=              2.2085  Tot=              6.4904
 Quadrupole moment (field-independent basis, Debye-Ang):
   XX=            -58.4277   YY=            -68.3377   ZZ=            -86.2752
   XY=              7.6594   XZ=            -10.1645   YZ=              5.1144

  Exact polarizability: 180.886   4.487 151.299  -5.877   4.003 112.127
 Approx polarizability: 187.889   0.977 173.134  -4.592   3.535 143.828

                      1                      2                      3
                      A                      A                      A
 Frequencies --     29.7249                60.2552                74.5384
 Red. masses --      3.9785                 3.7845                 3.2226
 Frc consts  --      0.0021                 0.0081                 0.0105
 IR Inten    --      1.8033                 1.8499                 0.4057

                      4                      5                      6
                      A                      A                      A
 Frequencies --     84.7138               109.7053               135.0255
 Red. masses --      2.4966                 2.7361                 2.9779
 Frc consts  --      0.0106                 0.0194                 0.0320
 IR Inten    --      9.4278                 4.9989                 2.2309

                      7                      8                      9
                      A                      A                      A
 Frequencies --    139.2691               145.4846               176.2098
 Red. masses --      2.2778                 2.4629                 1.3692
 Frc consts  --      0.0260                 0.0307                 0.0250
 IR Inten    --      2.9725                 4.0335                 1.5701

                     10                     11                     12
                      A                      A                      A
 Frequencies --    186.3877               200.8392               220.0217
 Red. masses --      1.6908                 1.8570                 2.5114
 Frc consts  --      0.0346                 0.0441                 0.0716
 IR Inten    --      2.4146                 4.2117                 9.3620

                     13                     14                     15
                      A                      A                      A
 Frequencies --    226.3560               239.6452               257.2052
 Red. masses --      2.2267                 1.6523                 1.8983
 Frc consts  --      0.0672                 0.0559                 0.0740
 IR Inten    --      0.6988                 0.0027                 5.6564

                     16                     17                     18
                      A                      A                      A
 Frequencies --    281.4034               304.8820               316.0527
 Red. masses --      2.2727                 3.8787                 4.4913
 Frc consts  --      0.1060                 0.2124                 0.2643
 IR Inten    --      3.0994                 1.3542                17.3809

                     19                     20                     21
                      A                      A                      A
 Frequencies --    368.4060               400.7381               417.0596
 Red. masses --      4.6338                 4.0457                 2.8631
 Frc consts  --      0.3705                 0.3828                 0.2934
 IR Inten    --      8.7332                13.7940                 8.8584

                     22                     23                     24
                      A                      A                      A
 Frequencies --    440.9757               469.5903               486.9460
 Red. masses --      4.2465                 3.6971                 3.7727
 Frc consts  --      0.4865                 0.4803                 0.5271
 IR Inten    --      2.0576                34.8343                13.8893

                     25                     26                     27
                      A                      A                      A
 Frequencies --    531.0789               550.2277               606.0477
 Red. masses --      3.1407                 3.4719                 3.1650
 Frc consts  --      0.5219                 0.6193                 0.6849
 IR Inten    --     13.6281                21.9166                18.5622

                     28                     29                     30
                      A                      A                      A
 Frequencies --    710.8715               802.5958               849.5183
 Red. masses --      4.7844                 6.5639                 2.0427
 Frc consts  --      1.4245                 2.4912                 0.8686
 IR Inten    --     62.8447                53.6760                 3.0258

                     31                     32                     33
                      A                      A                      A
 Frequencies --    922.3930               941.9030               953.5352
 Red. masses --      2.3595                 5.3394                 3.5871
 Frc consts  --      1.1828                 2.7910                 1.9216
 IR Inten    --     18.7753                20.9340                52.3490

                     34                     35                     36
                      A                      A                      A
 Frequencies --    968.0546              1009.8560              1052.1760
 Red. masses --      3.2140                 5.2504                 3.9822
 Frc consts  --      1.7746                 3.1547                 2.5975
 IR Inten    --     48.3826                12.7955                53.9209

                     37                     38                     39
                      A                      A                      A
 Frequencies --   1067.6011              1076.9879              1111.1129
 Red. masses --      2.7860                 2.9240                 2.6556
 Frc consts  --      1.8709                 1.9982                 1.9317
 IR Inten    --     42.5584                44.2869                 2.6779

                     40                     41                     42
                      A                      A                      A
 Frequencies --   1137.0887              1140.8792              1148.5020
 Red. masses --      2.5883                 4.2511                 3.1336
 Frc consts  --      1.9718                 3.2601                 2.4354
 IR Inten    --     75.7390               303.1726               122.6129

                     43                     44                     45
                      A                      A                      A
 Frequencies --   1160.0548              1167.0329              1179.9584
 Red. masses --      2.5372                 3.3789                 1.2611
 Frc consts  --      2.0117                 2.7114                 1.0345
 IR Inten    --     84.0681                49.0194                 2.2578

                     46                     47                     48
                      A                      A                      A
 Frequencies --   1186.3441              1186.8989              1193.0977
 Red. masses --      1.5021                 1.2896                 1.2790
 Frc consts  --      1.2456                 1.0703                 1.0727
 IR Inten    --     11.8038                 3.7320                 4.5194

                     49                     50                     51
                      A                      A                      A
 Frequencies --   1213.3474              1224.2566              1231.2984
 Red. masses --      1.4406                 1.7614                 1.7002
 Frc consts  --      1.2496                 1.5555                 1.5187
 IR Inten    --     29.7570                98.2486                75.9591

                     52                     53                     54
                      A                      A                      A
 Frequencies --   1238.8900              1259.6862              1288.9815
 Red. masses --      1.6805                 1.6025                 1.4064
 Frc consts  --      1.5197                 1.4982                 1.3767
 IR Inten    --     22.4213                12.8190                92.6791

                     55                     56                     57
                      A                      A                      A
 Frequencies --   1314.8048              1328.0636              1342.9693
 Red. masses --      1.3386                 1.1675                 1.2602
 Frc consts  --      1.3634                 1.2133                 1.3391
 IR Inten    --      5.9189                28.8647                 6.2076

                     58                     59                     60
                      A                      A                      A
 Frequencies --   1356.0586              1374.3385              1410.7247
 Red. masses --      1.1882                 1.3109                 1.2984
 Frc consts  --      1.2874                 1.4589                 1.5224
 IR Inten    --      4.5917                 4.3481                 2.3944

                     61                     62                     63
                      A                      A                      A
 Frequencies --   1422.6976              1433.6768              1436.7854
 Red. masses --      1.3300                 1.2571                 1.2706
 Frc consts  --      1.5861                 1.5224                 1.5454
 IR Inten    --      1.1785                33.1807                44.7053

                     64                     65                     66
                      A                      A                      A
 Frequencies --   1493.4754              1497.5935              1500.9809
 Red. masses --      1.1573                 1.1235                 1.1251
 Frc consts  --      1.5209                 1.4846                 1.4934
 IR Inten    --      2.0315                 1.2391                 2.9012

                     67                     68                     69
                      A                      A                      A
 Frequencies --   1505.6706              1511.3772              1513.4898
 Red. masses --      1.1138                 1.0576                 1.0639
 Frc consts  --      1.4878                 1.4234                 1.4359
 IR Inten    --      0.6725                 9.4436                 2.9069

                     70                     71                     72
                      A                      A                      A
 Frequencies --   1523.6932              1524.4087              1525.1897
 Red. masses --      1.0595                 1.0835                 1.0764
 Frc consts  --      1.4492                 1.4834                 1.4753
 IR Inten    --      6.7770                10.1067                26.2083

                     73                     74                     75
                      A                      A                      A
 Frequencies --   1527.7353              1530.2205              1532.8770
 Red. masses --      1.0506                 1.0536                 1.0510
 Frc consts  --      1.4447                 1.4535                 1.4550
 IR Inten    --     11.1855                 6.8690                 5.9516

                     76                     77                     78
                      A                      A                      A
 Frequencies --   1533.6215              1641.3990              2958.6499
 Red. masses --      1.0530                 6.5288                 1.0786
 Frc consts  --      1.4592                10.3637                 5.5631
 IR Inten    --     11.1587               291.8917                15.9676

                     79                     80                     81
                      A                      A                      A
 Frequencies --   3034.7957              3039.6937              3042.2987
 Red. masses --      1.0353                 1.0345                 1.0376
 Frc consts  --      5.6182                 5.6318                 5.6585
 IR Inten    --     49.5513                29.4579                33.5362

                     82                     83                     84
                      A                      A                      A
 Frequencies --   3044.7463              3047.0265              3053.5889
 Red. masses --      1.0622                 1.0365                 1.0775
 Frc consts  --      5.8017                 5.6698                 5.9198
 IR Inten    --     60.1376                37.7516                36.6286

                     85                     86                     87
                      A                      A                      A
 Frequencies --   3095.2730              3101.3268              3104.4927
 Red. masses --      1.0862                 1.1057                 1.1060
 Frc consts  --      6.1314                 6.2657                 6.2806
 IR Inten    --     11.9237                47.7038                69.7228

                     88                     89                     90
                      A                      A                      A
 Frequencies --   3105.4327              3117.0816              3122.5266
 Red. masses --      1.1062                 1.1011                 1.1045
 Frc consts  --      6.2852                 6.3033                 6.3447
 IR Inten    --     36.0658                21.6812                36.3476

                     91                     92                     93
                      A                      A                      A
 Frequencies --   3159.4352              3161.1388              3164.1454
 Red. masses --      1.0901                 1.0992                 1.1037
 Frc consts  --      6.4109                 6.4716                 6.5107
 IR Inten    --      3.1735                22.8374                24.6000

                     94                     95                     96
                      A                      A                      A
 Frequencies --   3166.8670              3181.8107              3199.7688
 Red. masses --      1.1005                 1.1013                 1.0934
 Frc consts  --      6.5025                 6.5692                 6.5961
 IR Inten    --     17.5758                15.4853                 1.1557

 - Thermochemistry -
 -------------------
 Temperature   298.150 Kelvin.  Pressure   1.00000 Atm.
 Atom     1 has atomic number  6 and mass  12.00000

 Molecular mass:   219.12325 amu.
 Principal axes and moments of inertia in atomic units:
                           1         2         3
     Eigenvalues --  1961.664784401.520155770.81631
           X            0.99987   0.00742  -0.01451
           Y           -0.00725   0.99990   0.01234
           Z            0.01460  -0.01224   0.99982
 This molecule is an asymmetric top.
 Rotational symmetry number  1.
 Warning -- assumption of classical behavior for rotation
           may cause significant error
 Rotational temperatures (Kelvin)      0.04415     0.01968     0.01501
 Rotational constants (GHZ):           0.92000     0.41003     0.31274
 Zero-point vibrational energy     774962.8 (Joules/Mol)
                                  185.22055 (Kcal/Mol)
 Warning -- explicit consideration of  27 degrees of freedom as
           vibrations may cause significant error
 Vibrational temperatures:     42.77    86.69   107.24   121.88   157.84
          (Kelvin)            194.27   200.38   209.32   253.53   268.17
                              288.96   316.56   325.68   344.80   370.06
                              404.88   438.66   454.73   530.05   576.57
                              600.06   634.47   675.64   700.61   764.10
                              791.65   871.97  1022.79  1154.76  1222.27
                             1327.12  1355.19  1371.92  1392.81  1452.96
                             1513.85  1536.04  1549.55  1598.64  1636.02
                             1641.47  1652.44  1669.06  1679.10  1697.70
                             1706.88  1707.68  1716.60  1745.74  1761.43
                             1771.56  1782.49  1812.41  1854.56  1891.71
                             1910.79  1932.23  1951.07  1977.37  2029.72
                             2046.94  2062.74  2067.21  2148.78  2154.70
                             2159.58  2166.32  2174.53  2177.57  2192.25
                             2193.28  2194.41  2198.07  2201.65  2205.47
                             2206.54  2361.61  4256.84  4366.39  4373.44
                             4377.19  4380.71  4383.99  4393.43  4453.41
                             4462.12  4466.67  4468.03  4484.79  4492.62
                             4545.72  4548.17  4552.50  4556.42  4577.92
                             4603.75

 Zero-point correction=                           0.295168 (Hartree/Particle)
 Thermal correction to Energy=                    0.312184
 Thermal correction to Enthalpy=                  0.313128
 Thermal correction to Gibbs Free Energy=         0.250544
 Sum of electronic and zero-point Energies=           -768.027703
 Sum of electronic and thermal Energies=              -768.010687
 Sum of electronic and thermal Enthalpies=            -768.009743
 Sum of electronic and thermal Free Energies=         -768.072327

                     E (Thermal)             CV                S
                      KCal/Mol        Cal/Mol-Kelvin    Cal/Mol-Kelvin
 Total                  195.898             61.488            131.720
 Electronic               0.000              0.000              0.000
 Translational            0.889              2.981             42.056
 Rotational               0.889              2.981             32.277
 Vibrational            194.121             55.527             57.386
 Vibration     1          0.594              1.984              5.848
 Vibration     2          0.597              1.973              4.449
 Vibration     3          0.599              1.966              4.030
 Vibration     4          0.601              1.960              3.779
 Vibration     5          0.606              1.941              3.274
 Vibration     6          0.613              1.918              2.873
 Vibration     7          0.615              1.914              2.814
 Vibration     8          0.617              1.908              2.730
 Vibration     9          0.628              1.872              2.368
 Vibration    10          0.632              1.858              2.263
 Vibration    11          0.638              1.839              2.125
 Vibration    12          0.647              1.811              1.959
 Vibration    13          0.650              1.801              1.908
 Vibration    14          0.657              1.780              1.806
 Vibration    15          0.667              1.751              1.681
 Vibration    16          0.681              1.708              1.525
 Vibration    17          0.696              1.664              1.390
 Vibration    18          0.703              1.643              1.330
 Vibration    19          0.741              1.537              1.086
 Vibration    20          0.767              1.469              0.960
 Vibration    21          0.780              1.433              0.902
 Vibration    22          0.801              1.381              0.824
 Vibration    23          0.827              1.318              0.739
 Vibration    24          0.843              1.279              0.692
 Vibration    25          0.886              1.181              0.585
 Vibration    26          0.906              1.139              0.544
 Vibration    27          0.965              1.019              0.439

                           ! Non-Optimized Parameters !
 Normal termination of Gaussian 16 at Fri May 24 09:29:24 2019.
