 Gaussian 16, Revision A.03,
 Gaussian 16:  ES64L-G16RevA.03 25-Dec-2016

 -------------------------------------------------------------------
 #p b3lyp 6-31g* opt freq=noraman scrf=(pcm,solvent=tetrahydrofuran)
 -------------------------------------------------------------------

 -----
 title
 -----
 Symbolic Z-matrix:
 Charge =  1 Multiplicity = 1

 SCF Done:  E(RB3LYP) =  -768.322002627     A.U. after   13 cycles
 Optimization completed.
    -- Stationary point found.
 Normal termination of Gaussian 16 at Fri May 24 08:33:23 2019.

 --------------------------------------------------------------------
 #P Geom=AllCheck Guess=TCheck SCRF=Check GenChk RB3LYP/6-31G(d) Freq
 --------------------------------------------------------------------

 Structure from the checkpoint file:  "/scratch/Gau-12147.chk"
 -----
 title
 -----
 Charge =  1 Multiplicity = 1

                         Standard orientation:
 ---------------------------------------------------------------------
 Center     Atomic      Atomic             Coordinates (Angstroms)
 Number     Number       Type             X           Y           Z
 ---------------------------------------------------------------------
      1          6           0        0.608142    0.863744    0.493527
      2          6           0        1.560418    0.530852   -0.670166
      3          6           0        1.118815   -0.600061   -1.545780
      4          6           0       -0.876547   -1.100543   -0.244342
      5          6           0       -0.310512   -0.313344    0.940120
      6          1           0        1.741325   -0.902900   -2.387566
      7          1           0        1.683669    1.435705   -1.277161
      8          1           0        1.226340    1.160218    1.350228
      9          1           0       -1.142663   -2.112768    0.058400
     10          1           0       -1.191326    0.143886    1.399195
     11          8           0        0.140381   -1.359653   -1.330608
     12          8           0        2.803213    0.004005   -0.226637
     13          8           0       -0.184940    1.940791    0.019864
     14          8           0        0.217813   -1.126606    1.966528
     15          6           0       -2.064897   -0.448426   -0.963609
     16          1           0       -2.333993   -1.057813   -1.839273
     17          1           0       -1.796450    0.561351   -1.304165
     18          8           0       -3.100649   -0.417266   -0.011992
     19          6           0        3.975650    0.651946   -0.755999
     20          1           0        4.044820    0.528761   -1.841969
     21          1           0        3.962389    1.717247   -0.501583
     22          1           0        4.823042    0.160357   -0.278111
     23          6           0       -0.678539    2.810671    1.041175
     24          1           0       -1.229140    3.600454    0.527844
     25          1           0       -1.355977    2.294424    1.732490
     26          1           0        0.151240    3.249296    1.609728
     27          6           0        1.253876   -2.058782    1.651874
     28          1           0        1.458678   -2.593774    2.580842
     29          1           0        0.932688   -2.792282    0.899298
     30          1           0        2.168118   -1.562423    1.311832
     31          6           0       -4.301606    0.154216   -0.522642
     32          1           0       -5.027944    0.131685    0.291640
     33          1           0       -4.142862    1.193377   -0.842183
     34          1           0       -4.687302   -0.426599   -1.371675
 ---------------------------------------------------------------------

 SCF Done:  E(RB3LYP) =  -768.322002627     A.U. after    1 cycles

 The electronic state is 1-A.
 Alpha  occ. eigenvalues --  -19.33028 -19.22951 -19.19514 -19.18670 -19.18648
 Alpha  occ. eigenvalues --  -10.39704 -10.31921 -10.31797 -10.29379 -10.28964
 Alpha  occ. eigenvalues --  -10.27818 -10.26858 -10.25340 -10.24852 -10.24760
 Alpha  occ. eigenvalues --   -1.21642  -1.10534  -1.07846  -1.06939  -1.06462
 Alpha  occ. eigenvalues --   -0.87039  -0.85411  -0.77261  -0.75545  -0.73993
 Alpha  occ. eigenvalues --   -0.71148  -0.68991  -0.68281  -0.66659  -0.61788
 Alpha  occ. eigenvalues --   -0.59407  -0.58161  -0.57162  -0.54373  -0.53580
 Alpha  occ. eigenvalues --   -0.52921  -0.51360  -0.50953  -0.50383  -0.49007
 Alpha  occ. eigenvalues --   -0.48444  -0.47850  -0.47179  -0.46194  -0.46063
 Alpha  occ. eigenvalues --   -0.44803  -0.42469  -0.42319  -0.41269  -0.40855
 Alpha  occ. eigenvalues --   -0.39493  -0.37979  -0.36649  -0.35701  -0.34252
 Alpha  occ. eigenvalues --   -0.33051  -0.31281  -0.29026  -0.28084
 Alpha virt. eigenvalues --   -0.15065   0.00278   0.02937   0.04924   0.06457
 Alpha virt. eigenvalues --    0.07000   0.08321   0.08966   0.09925   0.10839
 Alpha virt. eigenvalues --    0.11198   0.11668   0.12401   0.12726   0.12990

 Mulliken charges:
               1
     1  C    0.096057
     2  C    0.034636
     3  C    0.297367
     4  C    0.020211
     5  C    0.096680
     6  H    0.276514
     7  H    0.240478
     8  H    0.196618
     9  H    0.242046
    10  H    0.212335
    11  O   -0.312531
    12  O   -0.459144
    13  O   -0.490324
    14  O   -0.478376
    15  C   -0.023248
    16  H    0.173243
    17  H    0.173095
    18  O   -0.478603
    19  C   -0.233370
    20  H    0.183133
    21  H    0.188324
    22  H    0.204043
    23  C   -0.225422
    24  H    0.186285
    25  H    0.166799
    26  H    0.167617
    27  C   -0.261487
    28  H    0.187890
    29  H    0.153174
    30  H    0.181019
    31  C   -0.211633
    32  H    0.181321
    33  H    0.157100
    34  H    0.158154
 Sum of Mulliken charges =   1.00000

 Dipole moment (field-independent basis, Debye):
    X=              3.7988    Y=              0.8227    Z=             -5.3036  Tot=              6.5754
 Quadrupole moment (field-independent basis, Debye-Ang):
   XX=            -53.7102   YY=            -75.5684   ZZ=            -78.3424
   XY=             -0.5003   XZ=             -4.1340   YZ=              4.7174

  Exact polarizability: 173.937   2.727 136.207  -1.240   1.463 127.375
 Approx polarizability: 183.468   6.372 155.330   1.364   0.524 155.534

                      1                      2                      3
                      A                      A                      A
 Frequencies --     36.7162                50.8446                65.2690
 Red. masses --      3.8240                 3.8377                 2.5562
 Frc consts  --      0.0030                 0.0058                 0.0064
 IR Inten    --      1.6907                 0.4250                11.0499

                      4                      5                      6
                      A                      A                      A
 Frequencies --     77.6909                99.5325               106.8475
 Red. masses --      3.3786                 2.8966                 2.1095
 Frc consts  --      0.0120                 0.0169                 0.0142
 IR Inten    --      1.5910                 0.0946                 4.0529

                      7                      8                      9
                      A                      A                      A
 Frequencies --    122.1794               129.4065               154.7711
 Red. masses --      2.7080                 2.6162                 2.2197
 Frc consts  --      0.0238                 0.0258                 0.0313
 IR Inten    --      2.3886                 4.8103                 3.7922

                     10                     11                     12
                      A                      A                      A
 Frequencies --    174.5216               192.6329               195.8763
 Red. masses --      1.4903                 1.7096                 1.8580
 Frc consts  --      0.0267                 0.0374                 0.0420
 IR Inten    --      1.8414                 0.2778                 2.1529

                     13                     14                     15
                      A                      A                      A
 Frequencies --    213.5955               240.5415               246.9683
 Red. masses --      1.2433                 1.5765                 2.3454
 Frc consts  --      0.0334                 0.0537                 0.0843
 IR Inten    --      0.8855                17.3277                 3.7297

                     16                     17                     18
                      A                      A                      A
 Frequencies --    281.7423               301.0769               316.4832
 Red. masses --      3.9386                 3.4452                 3.9456
 Frc consts  --      0.1842                 0.1840                 0.2328
 IR Inten    --     25.1671                 4.4865                 3.0629

                     19                     20                     21
                      A                      A                      A
 Frequencies --    368.6643               380.1978               388.7365
 Red. masses --      4.8157                 3.9478                 4.8035
 Frc consts  --      0.3856                 0.3362                 0.4277
 IR Inten    --      1.2275                33.3820                 0.4213

                     22                     23                     24
                      A                      A                      A
 Frequencies --    430.8456               481.8583               508.4250
 Red. masses --      4.4421                 4.3512                 3.8196
 Frc consts  --      0.4858                 0.5953                 0.5817
 IR Inten    --      9.7131                 0.4701                13.9210

                     25                     26                     27
                      A                      A                      A
 Frequencies --    567.8400               584.3935               647.1834
 Red. masses --      5.1831                 3.9522                 4.3863
 Frc consts  --      0.9847                 0.7952                 1.0824
 IR Inten    --     34.4699                16.1942                 7.7821

                     28                     29                     30
                      A                      A                      A
 Frequencies --    756.9111               850.8025               856.7626
 Red. masses --      5.3922                 2.7041                 2.5002
 Frc consts  --      1.8201                 1.1533                 1.0813
 IR Inten    --     58.3179                16.4716                11.8502

                     31                     32                     33
                      A                      A                      A
 Frequencies --    906.2999               933.2181               947.8417
 Red. masses --      4.6948                 3.7074                 2.1390
 Frc consts  --      2.2720                 1.9023                 1.1322
 IR Inten    --     75.6993                15.3156                40.8979

                     34                     35                     36
                      A                      A                      A
 Frequencies --    975.0997              1003.6391              1030.1301
 Red. masses --      4.4344                 4.5929                 3.4879
 Frc consts  --      2.4842                 2.7258                 2.1807
 IR Inten    --      9.9400                54.3129                10.2918

                     37                     38                     39
                      A                      A                      A
 Frequencies --   1040.7819              1098.1235              1106.1011
 Red. masses --      2.2397                 2.7744                 3.1842
 Frc consts  --      1.4294                 1.9712                 2.2953
 IR Inten    --      2.8879               186.9852                98.2056

                     40                     41                     42
                      A                      A                      A
 Frequencies --   1110.8100              1136.1169              1144.4367
 Red. masses --      3.0337                 4.4779                 1.5298
 Frc consts  --      2.2055                 3.4054                 1.1805
 IR Inten    --     18.9852               228.5787                 9.6207

                     43                     44                     45
                      A                      A                      A
 Frequencies --   1159.6026              1168.3272              1181.6373
 Red. masses --      4.9196                 2.8325                 1.2698
 Frc consts  --      3.8976                 2.2780                 1.0446
 IR Inten    --    209.0071               104.5801                 2.1065

                     46                     47                     48
                      A                      A                      A
 Frequencies --   1188.4715              1192.4786              1193.3656
 Red. masses --      1.2738                 1.2706                 1.4467
 Frc consts  --      1.0600                 1.0646                 1.2139
 IR Inten    --      4.1233                 1.6849                32.3119

                     49                     50                     51
                      A                      A                      A
 Frequencies --   1209.3637              1226.0904              1234.6522
 Red. masses --      1.3824                 1.5311                 1.6196
 Frc consts  --      1.1912                 1.3561                 1.4546
 IR Inten    --     12.1421                 9.4328                25.8200

                     52                     53                     54
                      A                      A                      A
 Frequencies --   1236.5083              1248.4393              1282.0592
 Red. masses --      1.5499                 1.8900                 1.2336
 Frc consts  --      1.3962                 1.7356                 1.1947
 IR Inten    --     58.2744                 3.3068                 7.7932

                     55                     56                     57
                      A                      A                      A
 Frequencies --   1327.8866              1333.5080              1348.9067
 Red. masses --      1.2562                 1.2371                 1.2421
 Frc consts  --      1.3051                 1.2961                 1.3316
 IR Inten    --      6.9863                11.8184                21.7214

                     58                     59                     60
                      A                      A                      A
 Frequencies --   1366.8943              1382.8816              1397.9556
 Red. masses --      1.3709                 1.3859                 1.5722
 Frc consts  --      1.5092                 1.5616                 1.8102
 IR Inten    --      3.7314                49.6350                20.6328

                     61                     62                     63
                      A                      A                      A
 Frequencies --   1431.4386              1441.2664              1454.0467
 Red. masses --      1.3148                 1.3129                 1.2886
 Frc consts  --      1.5872                 1.6068                 1.6052
 IR Inten    --     11.4830                15.0330                49.6181

                     64                     65                     66
                      A                      A                      A
 Frequencies --   1490.6610              1497.8273              1502.7372
 Red. masses --      1.1161                 1.1188                 1.1494
 Frc consts  --      1.4612                 1.4788                 1.5293
 IR Inten    --     16.9530                 0.4391                 3.6118

                     67                     68                     69
                      A                      A                      A
 Frequencies --   1508.1481              1510.9019              1515.9078
 Red. masses --      1.1310                 1.0464                 1.0612
 Frc consts  --      1.5156                 1.4074                 1.4367
 IR Inten    --      2.4901                 9.1412                 6.1225

                     70                     71                     72
                      A                      A                      A
 Frequencies --   1516.3657              1519.7710              1523.9999
 Red. masses --      1.0660                 1.0499                 1.0598
 Frc consts  --      1.4441                 1.4287                 1.4503
 IR Inten    --     12.3731                17.1563                16.3540

                     73                     74                     75
                      A                      A                      A
 Frequencies --   1524.5090              1528.7114              1540.5671
 Red. masses --      1.0557                 1.0639                 1.0558
 Frc consts  --      1.4456                 1.4649                 1.4764
 IR Inten    --     18.9206                15.8814                17.3762

                     76                     77                     78
                      A                      A                      A
 Frequencies --   1550.5708              1642.0759              3015.3900
 Red. masses --      1.0916                 5.4718                 1.0503
 Frc consts  --      1.5464                 8.6929                 5.6268
 IR Inten    --      5.5129               331.0450                33.5373

                     79                     80                     81
                      A                      A                      A
 Frequencies --   3024.5962              3035.8178              3036.5831
 Red. masses --      1.0408                 1.0403                 1.0347
 Frc consts  --      5.6098                 5.6488                 5.6215
 IR Inten    --     71.5949                79.6688                22.3971

                     82                     83                     84
                      A                      A                      A
 Frequencies --   3054.5264              3064.7779              3066.6088
 Red. masses --      1.0319                 1.1035                 1.0882
 Frc consts  --      5.6724                 6.1070                 6.0292
 IR Inten    --     41.2473                56.3678                 9.3357

                     85                     86                     87
                      A                      A                      A
 Frequencies --   3079.1434              3086.2285              3097.9486
 Red. masses --      1.1073                 1.0829                 1.1069
 Frc consts  --      6.1853                 6.0772                 6.2588
 IR Inten    --     48.1282                 0.5680                48.3560

                     88                     89                     90
                      A                      A                      A
 Frequencies --   3112.4567              3117.4832              3128.2659
 Red. masses --      1.0848                 1.0944                 1.1088
 Frc consts  --      6.1918                 6.2669                 6.3931
 IR Inten    --      3.3674                29.9452                26.3204

                     91                     92                     93
                      A                      A                      A
 Frequencies --   3162.9914              3164.6989              3168.0611
 Red. masses --      1.0999                 1.1040                 1.1011
 Frc consts  --      6.4832                 6.5143                 6.5114
 IR Inten    --     24.6019                19.2544                21.2565

                     94                     95                     96
                      A                      A                      A
 Frequencies --   3170.1006              3186.5120              3210.9201
 Red. masses --      1.0876                 1.1040                 1.0939
 Frc consts  --      6.4397                 6.6048                 6.6446
 IR Inten    --      1.0172                10.8004                 1.4018

 - Thermochemistry -
 -------------------
 Temperature   298.150 Kelvin.  Pressure   1.00000 Atm.
 Atom     1 has atomic number  6 and mass  12.00000

 Molecular mass:   219.12325 amu.
 Principal axes and moments of inertia in atomic units:
                           1         2         3
     Eigenvalues --  2157.387584365.584714778.26019
           X            0.99996  -0.00765   0.00349
           Y            0.00763   0.99995   0.00647
           Z           -0.00354  -0.00644   0.99997
 This molecule is an asymmetric top.
 Rotational symmetry number  1.
 Warning -- assumption of classical behavior for rotation
           may cause significant error
 Rotational temperatures (Kelvin)      0.04015     0.01984     0.01813
 Rotational constants (GHZ):           0.83654     0.41340     0.37770
 Zero-point vibrational energy     775321.1 (Joules/Mol)
                                  185.30618 (Kcal/Mol)
 Warning -- explicit consideration of  26 degrees of freedom as
           vibrations may cause significant error
 Vibrational temperatures:     52.83    73.15    93.91   111.78   143.21
          (Kelvin)            153.73   175.79   186.19   222.68   251.10
                              277.16   281.82   307.32   346.09   355.33
                              405.36   433.18   455.35   530.43   547.02
                              559.31   619.89   693.29   731.51   817.00
                              840.81   931.15  1089.03  1224.12  1232.69
                             1303.96  1342.69  1363.73  1402.95  1444.01
                             1482.13  1497.45  1579.95  1591.43  1598.21
                             1634.62  1646.59  1668.41  1680.96  1700.11
                             1709.95  1715.71  1716.99  1740.00  1764.07
                             1776.39  1779.06  1796.23  1844.60  1910.53
                             1918.62  1940.78  1966.66  1989.66  2011.35
                             2059.52  2073.66  2092.05  2144.73  2155.04
                             2162.10  2169.89  2173.85  2181.05  2181.71
                             2186.61  2192.70  2193.43  2199.47  2216.53
                             2230.93  2362.58  4338.47  4351.72  4367.86
                             4368.97  4394.78  4409.53  4412.17  4430.20
                             4440.39  4457.26  4478.13  4485.36  4500.88
                             4550.84  4553.30  4558.13  4561.07  4584.68
                             4619.80

 Zero-point correction=                           0.295304 (Hartree/Particle)
 Thermal correction to Energy=                    0.312575
 Thermal correction to Enthalpy=                  0.313519
 Thermal correction to Gibbs Free Energy=         0.249953
 Sum of electronic and zero-point Energies=           -768.026698
 Sum of electronic and thermal Energies=              -768.009428
 Sum of electronic and thermal Enthalpies=            -768.008483
 Sum of electronic and thermal Free Energies=         -768.072049

                     E (Thermal)             CV                S
                      KCal/Mol        Cal/Mol-Kelvin    Cal/Mol-Kelvin
 Total                  196.144             61.411            133.785
 Electronic               0.000              0.000              0.000
 Translational            0.889              2.981             42.056
 Rotational               0.889              2.981             32.176
 Vibrational            194.366             55.449             59.553
 Vibration     1          0.594              1.982              5.429
 Vibration     2          0.595              1.977              4.784
 Vibration     3          0.597              1.971              4.291
 Vibration     4          0.599              1.964              3.948
 Vibration     5          0.604              1.949              3.463
 Vibration     6          0.606              1.944              3.325
 Vibration     7          0.610              1.931              3.066
 Vibration     8          0.612              1.924              2.955
 Vibration     9          0.620              1.897              2.613
 Vibration    10          0.627              1.874              2.386
 Vibration    11          0.635              1.850              2.202
 Vibration    12          0.636              1.846              2.171
 Vibration    13          0.644              1.820              2.013
 Vibration    14          0.658              1.778              1.799
 Vibration    15          0.661              1.768              1.752
 Vibration    16          0.681              1.707              1.523
 Vibration    17          0.693              1.672              1.411
 Vibration    18          0.703              1.642              1.328
 Vibration    19          0.741              1.537              1.085
 Vibration    20          0.750              1.512              1.038
 Vibration    21          0.757              1.494              1.005
 Vibration    22          0.792              1.403              0.856
 Vibration    23          0.838              1.290              0.705
 Vibration    24          0.864              1.231              0.637
 Vibration    25          0.924              1.101              0.508
 Vibration    26          0.941              1.065              0.477

                           ! Non-Optimized Parameters !
 Normal termination of Gaussian 16 at Fri May 24 08:55:05 2019.
