 Gaussian 16, Revision A.03,
 Gaussian 16:  ES64L-G16RevA.03 25-Dec-2016

 -------------------------------------------------------------------
 #p b3lyp 6-31g* opt freq=noraman scrf=(pcm,solvent=tetrahydrofuran)
 -------------------------------------------------------------------

 -----
 title
 -----
 Symbolic Z-matrix:
 Charge =  1 Multiplicity = 1

 SCF Done:  E(RB3LYP) =  -768.321491397     A.U. after   14 cycles
 Optimization completed.
    -- Stationary point found.
 Normal termination of Gaussian 16 at Fri May 24 08:32:54 2019.

 --------------------------------------------------------------------
 #P Geom=AllCheck Guess=TCheck SCRF=Check GenChk RB3LYP/6-31G(d) Freq
 --------------------------------------------------------------------

 Structure from the checkpoint file:  "/scratch/Gau-23823.chk"
 -----
 title
 -----
 Charge =  1 Multiplicity = 1

                         Standard orientation:
 ---------------------------------------------------------------------
 Center     Atomic      Atomic             Coordinates (Angstroms)
 Number     Number       Type             X           Y           Z
 ---------------------------------------------------------------------
      1          6           0        0.735092    0.672836    0.665334
      2          6           0        1.613085    0.263089   -0.542509
      3          6           0        0.901636   -0.547407   -1.581149
      4          6           0       -1.211974   -0.641072   -0.374942
      5          6           0       -0.492512   -0.246883    0.916035
      6          1           0        1.447939   -0.888827   -2.460396
      7          1           0        2.002480    1.169520   -1.021194
      8          1           0        1.364889    0.647490    1.563123
      9          1           0       -1.757122   -1.574754   -0.238476
     10          1           0       -1.210190    0.377481    1.455486
     11          8           0       -0.263859   -1.010649   -1.488257
     12          8           0        2.655785   -0.637022   -0.200008
     13          8           0        0.206318    1.964782    0.424998
     14          8           0       -0.250095   -1.330718    1.787275
     15          6           0       -2.139956    0.445456   -0.969574
     16          1           0       -2.514726    0.102751   -1.943188
     17          1           0       -1.573505    1.370090   -1.105436
     18          8           0       -3.181645    0.721222   -0.067873
     19          6           0        3.979042   -0.233161   -0.598386
     20          1           0        4.232433    0.729466   -0.140106
     21          1           0        4.648400   -1.011080   -0.231164
     22          1           0        4.062717   -0.160110   -1.688069
     23          6           0        1.080444    3.042240    0.764895
     24          1           0        0.530429    3.960393    0.553649
     25          1           0        1.345326    3.006229    1.828833
     26          1           0        2.001563    3.033518    0.165389
     27          6           0        0.496280   -2.453394    1.313676
     28          1           0        1.523245   -2.184960    1.046082
     29          1           0        0.515374   -3.162815    2.142850
     30          1           0        0.008621   -2.941461    0.458333
     31          6           0       -4.312468   -0.145356   -0.172365
     32          1           0       -4.069762   -1.181128    0.098960
     33          1           0       -5.056152    0.236502    0.529177
     34          1           0       -4.726006   -0.127311   -1.189030
 ---------------------------------------------------------------------

 SCF Done:  E(RB3LYP) =  -768.321491397     A.U. after    1 cycles

 The electronic state is 1-A.
 Alpha  occ. eigenvalues --  -19.32938 -19.22739 -19.19638 -19.18892 -19.18713
 Alpha  occ. eigenvalues --  -10.39492 -10.31857 -10.31578 -10.29388 -10.28972
 Alpha  occ. eigenvalues --  -10.27836 -10.26807 -10.25544 -10.24913 -10.24887
 Alpha  occ. eigenvalues --   -1.21504  -1.10395  -1.07984  -1.06943  -1.06534
 Alpha  occ. eigenvalues --   -0.86815  -0.85229  -0.77529  -0.75315  -0.73949
 Alpha  occ. eigenvalues --   -0.71468  -0.69352  -0.68378  -0.66417  -0.61675
 Alpha  occ. eigenvalues --   -0.59399  -0.58178  -0.57173  -0.54376  -0.53739
 Alpha  occ. eigenvalues --   -0.52783  -0.51164  -0.51023  -0.50391  -0.49039
 Alpha  occ. eigenvalues --   -0.48477  -0.47908  -0.47254  -0.46263  -0.45946
 Alpha  occ. eigenvalues --   -0.44165  -0.43506  -0.42930  -0.41253  -0.40891
 Alpha  occ. eigenvalues --   -0.39556  -0.37926  -0.36239  -0.35002  -0.34185
 Alpha  occ. eigenvalues --   -0.33091  -0.30716  -0.29500  -0.28753
 Alpha virt. eigenvalues --   -0.14992   0.00450   0.02973   0.04399   0.06308
 Alpha virt. eigenvalues --    0.06791   0.08111   0.09431   0.09917   0.10458
 Alpha virt. eigenvalues --    0.11221   0.11486   0.11751   0.12372   0.13186

 Mulliken charges:
               1
     1  C    0.091992
     2  C    0.030674
     3  C    0.292684
     4  C    0.014606
     5  C    0.104309
     6  H    0.274649
     7  H    0.233525
     8  H    0.197106
     9  H    0.235063
    10  H    0.216400
    11  O   -0.310662
    12  O   -0.456800
    13  O   -0.482412
    14  O   -0.479311
    15  C   -0.044569
    16  H    0.177504
    17  H    0.195354
    18  O   -0.460875
    19  C   -0.234546
    20  H    0.186249
    21  H    0.203476
    22  H    0.182380
    23  C   -0.226746
    24  H    0.190794
    25  H    0.171826
    26  H    0.156422
    27  C   -0.262645
    28  H    0.180928
    29  H    0.188406
    30  H    0.152701
    31  C   -0.225760
    32  H    0.158624
    33  H    0.185590
    34  H    0.163065
 Sum of Mulliken charges =   1.00000

 Dipole moment (field-independent basis, Debye):
    X=              4.6800    Y=             -0.6496    Z=             -5.4540  Tot=              7.2160
 Quadrupole moment (field-independent basis, Debye-Ang):
   XX=            -53.1129   YY=            -76.3053   ZZ=            -79.1797
   XY=              7.9056   XZ=             -2.3604   YZ=              3.2150

  Exact polarizability: 182.517   1.238 137.112  -2.255   0.866 127.253
 Approx polarizability: 195.192  -0.397 156.082  -0.477   1.778 154.401

                      1                      2                      3
                      A                      A                      A
 Frequencies --     55.1021                60.4937                83.6951
 Red. masses --      4.1199                 3.7061                 2.6210
 Frc consts  --      0.0074                 0.0080                 0.0108
 IR Inten    --      2.6372                 0.9083                 3.4574

                      4                      5                      6
                      A                      A                      A
 Frequencies --     87.3852                96.8147               114.3606
 Red. masses --      3.2487                 2.2232                 2.7225
 Frc consts  --      0.0146                 0.0123                 0.0210
 IR Inten    --      1.9100                 1.8843                 3.6783

                      7                      8                      9
                      A                      A                      A
 Frequencies --    124.2461               145.5264               159.0095
 Red. masses --      2.2096                 2.8912                 3.0389
 Frc consts  --      0.0201                 0.0361                 0.0453
 IR Inten    --      5.6134                 2.2680                 4.2991

                     10                     11                     12
                      A                      A                      A
 Frequencies --    172.0730               186.9029               216.5872
 Red. masses --      2.0437                 1.3196                 1.3586
 Frc consts  --      0.0357                 0.0272                 0.0376
 IR Inten    --      1.7559                 0.7284                 0.5536

                     13                     14                     15
                      A                      A                      A
 Frequencies --    219.8318               223.3592               257.4592
 Red. masses --      1.8187                 1.4051                 2.9284
 Frc consts  --      0.0518                 0.0413                 0.1144
 IR Inten    --      3.4466                 3.2115                13.3151

                     16                     17                     18
                      A                      A                      A
 Frequencies --    282.1043               315.7221               329.2855
 Red. masses --      2.9422                 3.7989                 4.8005
 Frc consts  --      0.1380                 0.2231                 0.3067
 IR Inten    --      7.9992                 2.0029                20.2471

                     19                     20                     21
                      A                      A                      A
 Frequencies --    372.1205               401.2639               415.1443
 Red. masses --      4.2477                 4.4652                 3.1241
 Frc consts  --      0.3466                 0.4236                 0.3172
 IR Inten    --      7.6524                 7.1399                 3.6623

                     22                     23                     24
                      A                      A                      A
 Frequencies --    461.9766               477.0907               509.0050
 Red. masses --      3.2830                 4.3547                 3.7842
 Frc consts  --      0.4128                 0.5840                 0.5777
 IR Inten    --     26.7644                19.2062                 4.7154

                     25                     26                     27
                      A                      A                      A
 Frequencies --    551.0012               562.9703               652.2076
 Red. masses --      4.1531                 5.3763                 4.6125
 Frc consts  --      0.7429                 1.0039                 1.1560
 IR Inten    --     53.2277                15.1427                10.8186

                     28                     29                     30
                      A                      A                      A
 Frequencies --    746.9004               842.8010               845.1352
 Red. masses --      5.2777                 3.0662                 2.1034
 Frc consts  --      1.7347                 1.2832                 0.8852
 IR Inten    --     43.7425                 3.8152                 5.9381

                     31                     32                     33
                      A                      A                      A
 Frequencies --    905.4237               932.6958               937.9765
 Red. masses --      5.1308                 2.8687                 4.0969
 Frc consts  --      2.4782                 1.4704                 2.1237
 IR Inten    --     41.5289                74.6341                16.6173

                     34                     35                     36
                      A                      A                      A
 Frequencies --    961.0364               987.9017              1025.3630
 Red. masses --      2.6706                 5.2306                 3.3159
 Frc consts  --      1.4532                 3.0077                 2.0540
 IR Inten    --     44.1822                29.2325                24.5922

                     37                     38                     39
                      A                      A                      A
 Frequencies --   1033.3530              1088.1581              1095.0450
 Red. masses --      2.6965                 2.9245                 2.5693
 Frc consts  --      1.6965                 2.0403                 1.8152
 IR Inten    --     14.9681                74.6129                96.2087

                     40                     41                     42
                      A                      A                      A
 Frequencies --   1113.8623              1126.1870              1139.2081
 Red. masses --      3.9476                 3.4003                 3.0527
 Frc consts  --      2.8857                 2.5409                 2.3342
 IR Inten    --    169.6978               115.4087                83.1189

                     43                     44                     45
                      A                      A                      A
 Frequencies --   1151.1434              1175.0726              1179.2791
 Red. masses --      1.8650                 1.2789                 2.3393
 Frc consts  --      1.4561                 1.0404                 1.9167
 IR Inten    --     97.1586                 4.4632               123.4222

                     46                     47                     48
                      A                      A                      A
 Frequencies --   1187.2386              1189.1926              1189.6787
 Red. masses --      1.3207                 1.3107                 1.5813
 Frc consts  --      1.0968                 1.0921                 1.3186
 IR Inten    --      9.3744                 6.7207                55.9922

                     49                     50                     51
                      A                      A                      A
 Frequencies --   1207.2943              1221.9106              1230.2900
 Red. masses --      1.3892                 1.6534                 1.6558
 Frc consts  --      1.1930                 1.4544                 1.4766
 IR Inten    --     14.6931                83.7236                17.4988

                     52                     53                     54
                      A                      A                      A
 Frequencies --   1237.3172              1248.5661              1322.2945
 Red. masses --      1.5318                 1.9764                 1.3476
 Frc consts  --      1.3817                 1.8153                 1.3883
 IR Inten    --     30.5983                16.1741                17.7294

                     55                     56                     57
                      A                      A                      A
 Frequencies --   1330.6396              1338.3287              1347.9911
 Red. masses --      1.2034                 1.2575                 1.2510
 Frc consts  --      1.2554                 1.3270                 1.3393
 IR Inten    --      4.4665                29.6256                 4.8916

                     58                     59                     60
                      A                      A                      A
 Frequencies --   1365.8602              1386.4203              1388.8828
 Red. masses --      1.2881                 1.5348                 1.3261
 Frc consts  --      1.4159                 1.7382                 1.5072
 IR Inten    --      2.0454                49.7085                28.8844

                     61                     62                     63
                      A                      A                      A
 Frequencies --   1423.6553              1436.5727              1444.0369
 Red. masses --      1.2806                 1.2992                 1.2470
 Frc consts  --      1.5293                 1.5797                 1.5321
 IR Inten    --     12.4177                 3.0505                45.3154

                     64                     65                     66
                      A                      A                      A
 Frequencies --   1488.3565              1497.6536              1500.2116
 Red. masses --      1.1331                 1.1127                 1.1139
 Frc consts  --      1.4788                 1.4704                 1.4771
 IR Inten    --     14.4559                 1.5828                 2.1961

                     67                     68                     69
                      A                      A                      A
 Frequencies --   1509.2097              1511.3704              1515.8522
 Red. masses --      1.1057                 1.0867                 1.0618
 Frc consts  --      1.4838                 1.4626                 1.4375
 IR Inten    --      5.3587                 7.4650                 9.7466

                     70                     71                     72
                      A                      A                      A
 Frequencies --   1518.6871              1520.9782              1522.4799
 Red. masses --      1.0478                 1.0616                 1.0532
 Frc consts  --      1.4239                 1.4470                 1.4384
 IR Inten    --     18.5823                 4.3732                10.2100

                     73                     74                     75
                      A                      A                      A
 Frequencies --   1526.0186              1527.7028              1531.9075
 Red. masses --      1.0502                 1.0653                 1.0958
 Frc consts  --      1.4409                 1.4649                 1.5152
 IR Inten    --     14.6888                15.1538                11.4212

                     76                     77                     78
                      A                      A                      A
 Frequencies --   1538.4912              1637.1649              3027.6425
 Red. masses --      1.0522                 5.5270                 1.0370
 Frc consts  --      1.4674                 8.7283                 5.6006
 IR Inten    --     17.5970               314.2982                54.8961

                     79                     80                     81
                      A                      A                      A
 Frequencies --   3030.4172              3030.8278              3051.3417
 Red. masses --      1.0355                 1.0417                 1.0649
 Frc consts  --      5.6027                 5.6379                 5.8420
 IR Inten    --     33.0349                63.2971                41.3346

                     82                     83                     84
                      A                      A                      A
 Frequencies --   3058.4520              3070.0252              3085.9376
 Red. masses --      1.0315                 1.0854                 1.0821
 Frc consts  --      5.6850                 6.0276                 6.0716
 IR Inten    --     43.4233                17.1437                 2.8375

                     85                     86                     87
                      A                      A                      A
 Frequencies --   3090.0979              3091.0783              3112.8198
 Red. masses --      1.1064                 1.1034                 1.0858
 Frc consts  --      6.2244                 6.2113                 6.1989
 IR Inten    --     58.0749                55.7636                 3.8875

                     88                     89                     90
                      A                      A                      A
 Frequencies --   3114.8512              3130.6928              3139.1743
 Red. masses --      1.0934                 1.1077                 1.0995
 Frc consts  --      6.2504                 6.3964                 6.3838
 IR Inten    --     26.1603                25.7544                 5.1998

                     91                     92                     93
                      A                      A                      A
 Frequencies --   3163.5654              3165.0212              3165.4515
 Red. masses --      1.0988                 1.1026                 1.0911
 Frc consts  --      6.4793                 6.5077                 6.4414
 IR Inten    --     23.3066                18.9622                 4.8784

                     94                     95                     96
                      A                      A                      A
 Frequencies --   3169.8463              3187.8847              3210.4067
 Red. masses --      1.1007                 1.1038                 1.0936
 Frc consts  --      6.5159                 6.6094                 6.6411
 IR Inten    --     19.9086                11.3466                 1.4835

 - Thermochemistry -
 -------------------
 Temperature   298.150 Kelvin.  Pressure   1.00000 Atm.
 Atom     1 has atomic number  6 and mass  12.00000

 Molecular mass:   219.12325 amu.
 Principal axes and moments of inertia in atomic units:
                           1         2         3
     Eigenvalues --  2166.441024278.088594905.12079
           X            0.99983   0.01850   0.00205
           Y           -0.01850   0.99983  -0.00237
           Z           -0.00209   0.00233   1.00000
 This molecule is an asymmetric top.
 Rotational symmetry number  1.
 Warning -- assumption of classical behavior for rotation
           may cause significant error
 Rotational temperatures (Kelvin)      0.03998     0.02025     0.01766
 Rotational constants (GHZ):           0.83304     0.42186     0.36793
 Zero-point vibrational energy     776119.6 (Joules/Mol)
                                  185.49704 (Kcal/Mol)
 Warning -- explicit consideration of  26 degrees of freedom as
           vibrations may cause significant error
 Vibrational temperatures:     79.28    87.04   120.42   125.73   139.29
          (Kelvin)            164.54   178.76   209.38   228.78   247.57
                              268.91   311.62   316.29   321.36   370.43
                              405.89   454.25   473.77   535.40   577.33
                              597.30   664.68   686.43   732.34   792.77
                              809.99   938.38  1074.62  1212.60  1215.96
                             1302.70  1341.94  1349.54  1382.72  1421.37
                             1475.27  1486.76  1565.62  1575.53  1602.60
                             1620.33  1639.07  1656.24  1690.67  1696.72
                             1708.17  1710.98  1711.68  1737.03  1758.06
                             1770.11  1780.22  1796.41  1902.49  1914.49
                             1925.56  1939.46  1965.17  1994.75  1998.29
                             2048.32  2066.91  2077.65  2141.41  2154.79
                             2158.47  2171.42  2174.52  2180.97  2185.05
                             2188.35  2190.51  2195.60  2198.02  2204.07
                             2213.55  2355.52  4356.10  4360.09  4360.69
                             4390.20  4400.43  4417.08  4439.98  4445.96
                             4447.37  4478.65  4481.58  4504.37  4516.57
                             4551.66  4553.76  4554.38  4560.70  4586.66
                             4619.06

 Zero-point correction=                           0.295608 (Hartree/Particle)
 Thermal correction to Energy=                    0.312631
 Thermal correction to Enthalpy=                  0.313576
 Thermal correction to Gibbs Free Energy=         0.251262
 Sum of electronic and zero-point Energies=           -768.025883
 Sum of electronic and thermal Energies=              -768.008860
 Sum of electronic and thermal Enthalpies=            -768.007916
 Sum of electronic and thermal Free Energies=         -768.070229

                     E (Thermal)             CV                S
                      KCal/Mol        Cal/Mol-Kelvin    Cal/Mol-Kelvin
 Total                  196.179             61.330            131.149
 Electronic               0.000              0.000              0.000
 Translational            0.889              2.981             42.056
 Rotational               0.889              2.981             32.186
 Vibrational            194.402             55.369             56.907
 Vibration     1          0.596              1.976              4.625
 Vibration     2          0.597              1.973              4.441
 Vibration     3          0.601              1.960              3.802
 Vibration     4          0.601              1.958              3.718
 Vibration     5          0.603              1.951              3.517
 Vibration     6          0.607              1.938              3.194
 Vibration     7          0.610              1.929              3.033
 Vibration     8          0.617              1.908              2.730
 Vibration     9          0.621              1.893              2.562
 Vibration    10          0.626              1.877              2.413
 Vibration    11          0.632              1.858              2.258
 Vibration    12          0.645              1.816              1.987
 Vibration    13          0.647              1.811              1.960
 Vibration    14          0.649              1.805              1.932
 Vibration    15          0.667              1.750              1.679
 Vibration    16          0.681              1.707              1.521
 Vibration    17          0.703              1.644              1.332
 Vibration    18          0.712              1.617              1.264
 Vibration    19          0.744              1.529              1.071
 Vibration    20          0.767              1.467              0.958
 Vibration    21          0.779              1.437              0.909
 Vibration    22          0.820              1.334              0.760
 Vibration    23          0.834              1.301              0.718
 Vibration    24          0.864              1.230              0.636
 Vibration    25          0.906              1.137              0.542
 Vibration    26          0.919              1.111              0.518

                           ! Non-Optimized Parameters !
 Normal termination of Gaussian 16 at Fri May 24 08:49:38 2019.
