 Gaussian 16, Revision A.03,
 Gaussian 16:  ES64L-G16RevA.03 25-Dec-2016

 -------------------------------------------------------------------
 #p b3lyp 6-31g* opt freq=noraman scrf=(pcm,solvent=tetrahydrofuran)
 -------------------------------------------------------------------

 -----
 title
 -----
 Symbolic Z-matrix:
 Charge =  1 Multiplicity = 1

 SCF Done:  E(RB3LYP) =  -768.322921551     A.U. after   13 cycles
 Optimization completed.
    -- Stationary point found.
 Normal termination of Gaussian 16 at Fri May 24 08:34:43 2019.

 --------------------------------------------------------------------
 #P Geom=AllCheck Guess=TCheck SCRF=Check GenChk RB3LYP/6-31G(d) Freq
 --------------------------------------------------------------------

 Structure from the checkpoint file:  "/scratch/Gau-192575.chk"
 -----
 title
 -----
 Charge =  1 Multiplicity = 1

                         Standard orientation:
 ---------------------------------------------------------------------
 Center     Atomic      Atomic             Coordinates (Angstroms)
 Number     Number       Type             X           Y           Z
 ---------------------------------------------------------------------
      1          6           0       -1.422299    0.462102   -0.305324
      2          6           0       -1.650568   -0.971157    0.237820
      3          6           0       -0.527091   -1.561941    1.017270
      4          6           0        1.038982   -0.167427   -0.159824
      5          6           0        0.018673    0.975818   -0.057325
      6          1           0       -0.675334   -2.384515    1.716347
      7          1           0       -2.600957   -1.046800    0.770607
      8          1           0       -1.537323    0.381728   -1.390773
      9          1           0        0.991166   -0.669788   -1.129311
     10          1           0        0.102095    1.414521    0.947340
     11          8           0        0.678398   -1.248925    0.824852
     12          8           0       -1.544760   -1.942356   -0.818688
     13          8           0       -2.433484    1.359124    0.105032
     14          8           0        0.406250    1.905273   -1.043181
     15          6           0        2.465339    0.218104    0.168085
     16          1           0        2.534780    0.534172    1.221621
     17          1           0        2.724751    1.079191   -0.463770
     18          8           0        3.284620   -0.895881   -0.094210
     19          6           0       -2.631020   -2.889037   -0.914759
     20          1           0       -2.712152   -3.500476   -0.011366
     21          1           0       -3.569561   -2.356253   -1.095689
     22          1           0       -2.384945   -3.523771   -1.766147
     23          6           0       -2.507253    1.685876    1.494193
     24          1           0       -1.671936    2.316787    1.818459
     25          1           0       -3.436413    2.244328    1.618064
     26          1           0       -2.550564    0.791757    2.131149
     27          6           0        0.024465    3.261577   -0.787930
     28          1           0        0.434656    3.609719    0.169321
     29          1           0        0.453602    3.852006   -1.599143
     30          1           0       -1.064007    3.375521   -0.785989
     31          6           0        4.654935   -0.641804    0.188524
     32          1           0        5.200917   -1.556680   -0.049700
     33          1           0        4.804961   -0.395386    1.249516
     34          1           0        5.043093    0.183396   -0.425351
 ---------------------------------------------------------------------

 SCF Done:  E(RB3LYP) =  -768.322921551     A.U. after    1 cycles

 The electronic state is 1-A.
 Alpha  occ. eigenvalues --  -19.32044 -19.23644 -19.19411 -19.19133 -19.17885
 Alpha  occ. eigenvalues --  -10.39442 -10.31862 -10.31626 -10.29604 -10.29165
 Alpha  occ. eigenvalues --  -10.27172 -10.26981 -10.25700 -10.24908 -10.24374
 Alpha  occ. eigenvalues --   -1.21083  -1.10542  -1.08210  -1.06628  -1.06243
 Alpha  occ. eigenvalues --   -0.86989  -0.85455  -0.77476  -0.75046  -0.73780
 Alpha  occ. eigenvalues --   -0.71278  -0.68836  -0.68050  -0.65560  -0.62230
 Alpha  occ. eigenvalues --   -0.60743  -0.58641  -0.56555  -0.54500  -0.52926
 Alpha  occ. eigenvalues --   -0.52608  -0.51134  -0.50819  -0.49634  -0.49168
 Alpha  occ. eigenvalues --   -0.48877  -0.48288  -0.46458  -0.46120  -0.45801
 Alpha  occ. eigenvalues --   -0.44124  -0.42855  -0.41947  -0.41569  -0.40546
 Alpha  occ. eigenvalues --   -0.40007  -0.38589  -0.35774  -0.35355  -0.34997
 Alpha  occ. eigenvalues --   -0.33640  -0.31578  -0.28711  -0.27709
 Alpha virt. eigenvalues --   -0.14436   0.01138   0.03268   0.05078   0.06139
 Alpha virt. eigenvalues --    0.07137   0.07874   0.08942   0.09110   0.10077
 Alpha virt. eigenvalues --    0.11027   0.11718   0.11945   0.12602   0.13016

 Mulliken charges:
               1
     1  C    0.141024
     2  C   -0.000677
     3  C    0.312396
     4  C    0.048077
     5  C    0.080022
     6  H    0.279136
     7  H    0.229708
     8  H    0.208500
     9  H    0.238522
    10  H    0.173349
    11  O   -0.317192
    12  O   -0.462322
    13  O   -0.479034
    14  O   -0.487289
    15  C   -0.019208
    16  H    0.160798
    17  H    0.184805
    18  O   -0.483385
    19  C   -0.233992
    20  H    0.186963
    21  H    0.192587
    22  H    0.207443
    23  C   -0.240284
    24  H    0.167497
    25  H    0.193834
    26  H    0.154545
    27  C   -0.226734
    28  H    0.159336
    29  H    0.183289
    30  H    0.174676
    31  C   -0.210085
    32  H    0.176779
    33  H    0.152356
    34  H    0.154559
 Sum of Mulliken charges =   1.00000

 Dipole moment (field-independent basis, Debye):
    X=             -3.1530    Y=             -2.7874    Z=              4.4819  Tot=              6.1481
 Quadrupole moment (field-independent basis, Debye-Ang):
   XX=            -61.9693   YY=            -64.2894   ZZ=            -80.2961
   XY=             13.7426   XZ=             -2.4792   YZ=             -0.0557

  Exact polarizability: 161.328   9.164 149.679   0.876   1.524 125.741
 Approx polarizability: 171.307   7.159 160.428   3.803   2.751 158.888

                      1                      2                      3
                      A                      A                      A
 Frequencies --     48.4091                57.8111                62.3705
 Red. masses --      3.8415                 4.0638                 3.1538
 Frc consts  --      0.0053                 0.0080                 0.0072
 IR Inten    --      1.2624                 0.4051                 3.4170

                      4                      5                      6
                      A                      A                      A
 Frequencies --     83.2347                95.3414               100.2346
 Red. masses --      2.7346                 2.5066                 2.2289
 Frc consts  --      0.0112                 0.0134                 0.0132
 IR Inten    --      1.2141                 1.8890                 7.9700

                      7                      8                      9
                      A                      A                      A
 Frequencies --    121.0911               143.6917               170.0482
 Red. masses --      2.7855                 2.3388                 1.9002
 Frc consts  --      0.0241                 0.0285                 0.0324
 IR Inten    --      0.9976                13.8797                 7.9898

                     10                     11                     12
                      A                      A                      A
 Frequencies --    180.5788               189.1743               211.2961
 Red. masses --      2.3806                 1.4328                 1.6450
 Frc consts  --      0.0457                 0.0302                 0.0433
 IR Inten    --      4.0269                 6.0194                 0.6731

                     13                     14                     15
                      A                      A                      A
 Frequencies --    229.7100               239.5568               254.0933
 Red. masses --      1.3884                 1.7820                 2.3549
 Frc consts  --      0.0432                 0.0603                 0.0896
 IR Inten    --      8.6145                13.5442                 8.8550

                     16                     17                     18
                      A                      A                      A
 Frequencies --    292.3970               300.8166               312.7648
 Red. masses --      4.7591                 3.3033                 3.8633
 Frc consts  --      0.2397                 0.1761                 0.2227
 IR Inten    --     12.1667                15.1074                13.9743

                     19                     20                     21
                      A                      A                      A
 Frequencies --    336.5233               355.0791               390.4436
 Red. masses --      3.7914                 3.3170                 3.1408
 Frc consts  --      0.2530                 0.2464                 0.2821
 IR Inten    --     10.5722                 8.2830                17.3804

                     22                     23                     24
                      A                      A                      A
 Frequencies --    427.3398               446.6748               503.6958
 Red. masses --      4.8558                 4.3442                 4.9740
 Frc consts  --      0.5225                 0.5107                 0.7435
 IR Inten    --      0.5853                12.4327                25.3782

                     25                     26                     27
                      A                      A                      A
 Frequencies --    545.8611               553.1959               642.3985
 Red. masses --      3.8471                 3.0993                 3.7202
 Frc consts  --      0.6754                 0.5588                 0.9045
 IR Inten    --     27.2126                 4.1726                21.0147

                     28                     29                     30
                      A                      A                      A
 Frequencies --    748.5521               821.2643               872.9204
 Red. masses --      4.0709                 4.6848                 4.5194
 Frc consts  --      1.3440                 1.8617                 2.0290
 IR Inten    --     66.4436                62.9287                33.3617

                     31                     32                     33
                      A                      A                      A
 Frequencies --    931.9370               943.5032               974.2303
 Red. masses --      2.4198                 3.7784                 4.1717
 Frc consts  --      1.2382                 1.9817                 2.3329
 IR Inten    --     27.3871                24.1571                15.2295

                     34                     35                     36
                      A                      A                      A
 Frequencies --    983.1451              1006.5071              1029.2222
 Red. masses --      3.1784                 2.6800                 3.0498
 Frc consts  --      1.8100                 1.5996                 1.9034
 IR Inten    --     36.8631                55.5171                16.5797

                     37                     38                     39
                      A                      A                      A
 Frequencies --   1055.0426              1080.5228              1091.2176
 Red. masses --      2.2473                 4.8578                 3.0815
 Frc consts  --      1.4738                 3.3417                 2.1619
 IR Inten    --     96.5293               185.4795                79.0270

                     40                     41                     42
                      A                      A                      A
 Frequencies --   1129.9969              1147.6500              1152.1811
 Red. masses --      2.7312                 2.6625                 3.5652
 Frc consts  --      2.0547                 2.0662                 2.7886
 IR Inten    --     17.6395               145.3100                73.7086

                     43                     44                     45
                      A                      A                      A
 Frequencies --   1156.9691              1168.4054              1180.6180
 Red. masses --      3.0245                 3.4062                 1.2714
 Frc consts  --      2.3854                 2.7398                 1.0441
 IR Inten    --    142.0914               147.6054                 3.1557

                     46                     47                     48
                      A                      A                      A
 Frequencies --   1185.8502              1187.4663              1194.1856
 Red. masses --      1.3583                 1.2563                 1.3388
 Frc consts  --      1.1254                 1.0437                 1.1249
 IR Inten    --     13.4191                 2.7556                 3.7995

                     49                     50                     51
                      A                      A                      A
 Frequencies --   1204.0140              1229.3913              1232.2376
 Red. masses --      1.3922                 1.5935                 1.6337
 Frc consts  --      1.1891                 1.4190                 1.4615
 IR Inten    --      0.6877                61.3675                 9.0233

                     52                     53                     54
                      A                      A                      A
 Frequencies --   1237.3496              1265.1139              1279.9855
 Red. masses --      1.5745                 1.3984                 1.1866
 Frc consts  --      1.4203                 1.3187                 1.1454
 IR Inten    --     27.0980                11.8796                16.3868

                     55                     56                     57
                      A                      A                      A
 Frequencies --   1300.0818              1346.0841              1348.4263
 Red. masses --      1.3325                 1.2357                 1.1987
 Frc consts  --      1.3270                 1.3192                 1.2841
 IR Inten    --      4.2578                31.3435                43.1795

                     58                     59                     60
                      A                      A                      A
 Frequencies --   1358.2686              1385.2223              1419.1973
 Red. masses --      1.5852                 1.2515                 1.2669
 Frc consts  --      1.7231                 1.4149                 1.5034
 IR Inten    --     17.6794                 4.9162                11.1158

                     61                     62                     63
                      A                      A                      A
 Frequencies --   1427.9737              1436.8231              1455.0477
 Red. masses --      1.3686                 1.3642                 1.4770
 Frc consts  --      1.6442                 1.6593                 1.8424
 IR Inten    --     39.3640                16.5479                34.5907

                     64                     65                     66
                      A                      A                      A
 Frequencies --   1493.7477              1498.7123              1501.6769
 Red. masses --      1.1356                 1.1516                 1.1580
 Frc consts  --      1.4928                 1.5241                 1.5385
 IR Inten    --     23.0165                 1.6862                 1.3720

                     67                     68                     69
                      A                      A                      A
 Frequencies --   1507.1492              1509.5257              1513.1446
 Red. masses --      1.0940                 1.0470                 1.0895
 Frc consts  --      1.4641                 1.4056                 1.4697
 IR Inten    --      4.7903                 8.4636                 3.6511

                     70                     71                     72
                      A                      A                      A
 Frequencies --   1513.9613              1518.1644              1523.8253
 Red. masses --      1.0507                 1.0564                 1.0613
 Frc consts  --      1.4189                 1.4346                 1.4520
 IR Inten    --     12.8801                20.3807                18.1298

                     73                     74                     75
                      A                      A                      A
 Frequencies --   1527.5517              1531.9085              1537.3525
 Red. masses --      1.0553                 1.0473                 1.0535
 Frc consts  --      1.4508                 1.4481                 1.4670
 IR Inten    --     10.7483                11.6253                16.9455

                     76                     77                     78
                      A                      A                      A
 Frequencies --   1544.1351              1634.7380              3002.0328
 Red. masses --      1.0987                 5.8663                 1.0612
 Frc consts  --      1.5434                 9.2366                 5.6350
 IR Inten    --      2.7633               305.2621                40.3388

                     79                     80                     81
                      A                      A                      A
 Frequencies --   3016.5253              3030.4311              3039.2536
 Red. masses --      1.0381                 1.0431                 1.0378
 Frc consts  --      5.5652                 5.6440                 5.6478
 IR Inten    --     71.4967                18.1517                56.8277

                     82                     83                     84
                      A                      A                      A
 Frequencies --   3043.2053              3060.2081              3067.3747
 Red. masses --      1.0778                 1.0977                 1.0302
 Frc consts  --      5.8811                 6.0564                 5.7110
 IR Inten    --     53.1693                59.0759                45.3845

                     85                     86                     87
                      A                      A                      A
 Frequencies --   3069.9367              3098.1118              3102.3577
 Red. masses --      1.1061                 1.1013                 1.0857
 Frc consts  --      6.1417                 6.2278                 6.1567
 IR Inten    --     36.1825                60.6598                 6.5465

                     88                     89                     90
                      A                      A                      A
 Frequencies --   3117.2139              3130.5140              3133.0582
 Red. masses --      1.1000                 1.0867                 1.0880
 Frc consts  --      6.2978                 6.2746                 6.2926
 IR Inten    --     35.8175                 1.1330                 2.8539

                     91                     92                     93
                      A                      A                      A
 Frequencies --   3145.8624              3157.0447              3164.6961
 Red. masses --      1.1082                 1.0992                 1.1005
 Frc consts  --      6.4620                 6.4550                 6.4939
 IR Inten    --     21.8419                29.9553                21.4370

                     94                     95                     96
                      A                      A                      A
 Frequencies --   3167.8565              3189.2716              3215.5438
 Red. masses --      1.1039                 1.1055                 1.0949
 Frc consts  --      6.5267                 6.6251                 6.6704
 IR Inten    --     22.4066                 8.2903                 2.0777

 - Thermochemistry -
 -------------------
 Temperature   298.150 Kelvin.  Pressure   1.00000 Atm.
 Atom     1 has atomic number  6 and mass  12.00000

 Molecular mass:   219.12325 amu.
 Principal axes and moments of inertia in atomic units:
                           1         2         3
     Eigenvalues --  2609.148264135.862605829.94780
           X            0.99968   0.02529  -0.00238
           Y           -0.02525   0.99959   0.01364
           Z            0.00272  -0.01357   0.99990
 This molecule is an asymmetric top.
 Rotational symmetry number  1.
 Warning -- assumption of classical behavior for rotation
           may cause significant error
 Rotational temperatures (Kelvin)      0.03320     0.02094     0.01486
 Rotational constants (GHZ):           0.69170     0.43636     0.30956
 Zero-point vibrational energy     774979.9 (Joules/Mol)
                                  185.22465 (Kcal/Mol)
 Warning -- explicit consideration of  26 degrees of freedom as
           vibrations may cause significant error
 Vibrational temperatures:     69.65    83.18    89.74   119.76   137.18
          (Kelvin)            144.22   174.22   206.74   244.66   259.81
                              272.18   304.01   330.50   344.67   365.58
                              420.69   432.81   450.00   484.18   510.88
                              561.76   614.85   642.67   724.71   785.37
                              795.93   924.27  1077.00  1181.62  1255.94
                             1340.85  1357.49  1401.70  1414.53  1448.14
                             1480.82  1517.97  1554.63  1570.02  1625.81
                             1651.21  1657.73  1664.62  1681.07  1698.65
                             1706.17  1708.50  1718.17  1732.31  1768.82
                             1772.92  1780.27  1820.22  1841.61  1870.53
                             1936.71  1940.08  1954.25  1993.03  2041.91
                             2054.54  2067.27  2093.49  2149.17  2156.31
                             2160.58  2168.45  2171.87  2177.08  2178.25
                             2184.30  2192.44  2197.81  2204.07  2211.91
                             2221.67  2352.02  4319.26  4340.11  4360.11
                             4372.81  4378.49  4402.96  4413.27  4416.95
                             4457.49  4463.60  4484.98  4504.11  4507.77
                             4526.19  4542.28  4553.29  4557.84  4588.65
                             4626.45

 Zero-point correction=                           0.295174 (Hartree/Particle)
 Thermal correction to Energy=                    0.312426
 Thermal correction to Enthalpy=                  0.313370
 Thermal correction to Gibbs Free Energy=         0.250086
 Sum of electronic and zero-point Energies=           -768.027747
 Sum of electronic and thermal Energies=              -768.010496
 Sum of electronic and thermal Enthalpies=            -768.009552
 Sum of electronic and thermal Free Energies=         -768.072836

                     E (Thermal)             CV                S
                      KCal/Mol        Cal/Mol-Kelvin    Cal/Mol-Kelvin
 Total                  196.050             61.584            133.193
 Electronic               0.000              0.000              0.000
 Translational            0.889              2.981             42.056
 Rotational               0.889              2.981             32.509
 Vibrational            194.273             55.623             58.628
 Vibration     1          0.595              1.978              4.881
 Vibration     2          0.596              1.974              4.531
 Vibration     3          0.597              1.972              4.381
 Vibration     4          0.600              1.961              3.813
 Vibration     5          0.603              1.953              3.547
 Vibration     6          0.604              1.949              3.450
 Vibration     7          0.609              1.932              3.083
 Vibration     8          0.616              1.909              2.754
 Vibration     9          0.625              1.879              2.435
 Vibration    10          0.630              1.866              2.322
 Vibration    11          0.633              1.855              2.236
 Vibration    12          0.643              1.824              2.032
 Vibration    13          0.652              1.796              1.881
 Vibration    14          0.657              1.780              1.806
 Vibration    15          0.665              1.756              1.702
 Vibration    16          0.688              1.688              1.460
 Vibration    17          0.693              1.672              1.412
 Vibration    18          0.701              1.649              1.348
 Vibration    19          0.717              1.603              1.229
 Vibration    20          0.731              1.565              1.144
 Vibration    21          0.758              1.491              0.998
 Vibration    22          0.789              1.411              0.867
 Vibration    23          0.806              1.368              0.806
 Vibration    24          0.859              1.242              0.649
 Vibration    25          0.901              1.149              0.553
 Vibration    26          0.909              1.133              0.538

 Optimization completed.
    -- Stationary point found.
 Normal termination of Gaussian 16 at Fri May 24 08:52:33 2019.
