 Gaussian 16, Revision A.03,
 Gaussian 16:  ES64L-G16RevA.03 25-Dec-2016

 -------------------------------------------------------------------
 #p b3lyp 6-31g* opt freq=noraman scrf=(pcm,solvent=tetrahydrofuran)
 -------------------------------------------------------------------

 -----
 title
 -----
 Symbolic Z-matrix:
 Charge =  1 Multiplicity = 1

 SCF Done:  E(RB3LYP) =  -768.327208544     A.U. after   13 cycles
 Optimization completed.
    -- Stationary point found.
 Normal termination of Gaussian 16 at Fri May 24 08:34:35 2019.

 --------------------------------------------------------------------
 #P Geom=AllCheck Guess=TCheck SCRF=Check GenChk RB3LYP/6-31G(d) Freq
 --------------------------------------------------------------------

 Structure from the checkpoint file:  "/scratch/Gau-44090.chk"
 -----
 title
 -----
 Charge =  1 Multiplicity = 1

                         Standard orientation:
 ---------------------------------------------------------------------
 Center     Atomic      Atomic             Coordinates (Angstroms)
 Number     Number       Type             X           Y           Z
 ---------------------------------------------------------------------
      1          6           0       -1.061092    0.678331   -0.187954
      2          6           0       -1.061101   -0.887557   -0.313672
      3          6           0       -0.140653   -1.219997   -1.436791
      4          6           0        1.438317    0.506529   -0.814008
      5          6           0        0.380710    1.101821    0.157306
      6          1           0       -0.400800   -1.995411   -2.159371
      7          1           0       -0.652014   -1.324607    0.612931
      8          1           0       -1.361244    1.076386   -1.162518
      9          1           0        1.790838    1.255607   -1.521380
     10          1           0        0.612501    0.707354    1.149418
     11          8           0        0.889210   -0.561469   -1.730838
     12          8           0       -2.340703   -1.351355   -0.622041
     13          8           0       -2.028711    1.154613    0.697227
     14          8           0        0.577784    2.492193    0.278111
     15          6           0        2.600973   -0.167807   -0.107862
     16          1           0        3.105826    0.598717    0.500324
     17          1           0        3.322236   -0.556086   -0.840656
     18          8           0        2.056390   -1.201648    0.681642
     19          6           0       -2.660574   -2.640164   -0.081869
     20          1           0       -2.022062   -3.425566   -0.505773
     21          1           0       -2.557578   -2.639329    1.010270
     22          1           0       -3.698503   -2.832522   -0.354497
     23          6           0       -1.844821    0.913152    2.094335
     24          1           0       -1.013409    1.499347    2.500137
     25          1           0       -2.772994    1.233110    2.569818
     26          1           0       -1.686571   -0.150502    2.313959
     27          6           0        0.051226    3.326798   -0.757717
     28          1           0        0.395037    3.022908   -1.755562
     29          1           0       -1.043547    3.344713   -0.737001
     30          1           0        0.430419    4.328243   -0.548504
     31          6           0        3.041718   -1.941330    1.401485
     32          1           0        2.507706   -2.706124    1.967559
     33          1           0        3.751176   -2.422014    0.715152
     34          1           0        3.593003   -1.291553    2.093367
 ---------------------------------------------------------------------

 SCF Done:  E(RB3LYP) =  -768.327208544     A.U. after    1 cycles

 The electronic state is 1-A.
 Alpha  occ. eigenvalues --  -19.32642 -19.20851 -19.19592 -19.19592 -19.19386
 Alpha  occ. eigenvalues --  -10.39250 -10.32139 -10.31633 -10.30025 -10.29510
 Alpha  occ. eigenvalues --  -10.28308 -10.26090 -10.25345 -10.25309 -10.25224
 Alpha  occ. eigenvalues --   -1.21405  -1.09889  -1.08274  -1.07602  -1.06556
 Alpha  occ. eigenvalues --   -0.87080  -0.85811  -0.77306  -0.75728  -0.74190
 Alpha  occ. eigenvalues --   -0.71732  -0.69547  -0.67828  -0.65623  -0.62099
 Alpha  occ. eigenvalues --   -0.60090  -0.58695  -0.56357  -0.54686  -0.54030
 Alpha  occ. eigenvalues --   -0.52704  -0.52057  -0.51168  -0.50610  -0.48871
 Alpha  occ. eigenvalues --   -0.48467  -0.47831  -0.47008  -0.46118  -0.45297
 Alpha  occ. eigenvalues --   -0.43686  -0.43447  -0.42601  -0.42232  -0.40888
 Alpha  occ. eigenvalues --   -0.40438  -0.37681  -0.36404  -0.35884  -0.34430
 Alpha  occ. eigenvalues --   -0.31577  -0.31096  -0.29960  -0.28945
 Alpha virt. eigenvalues --   -0.14842  -0.00010   0.03871   0.05545   0.06253
 Alpha virt. eigenvalues --    0.06606   0.07622   0.08763   0.09200   0.10566
 Alpha virt. eigenvalues --    0.10689   0.11646   0.11944   0.12737   0.13178

 Mulliken charges:
               1
     1  C    0.102912
     2  C    0.024816
     3  C    0.292334
     4  C    0.037465
     5  C    0.094120
     6  H    0.275814
     7  H    0.230231
     8  H    0.193439
     9  H    0.240917
    10  H    0.202534
    11  O   -0.303001
    12  O   -0.469048
    13  O   -0.462943
    14  O   -0.482543
    15  C   -0.034794
    16  H    0.192532
    17  H    0.185056
    18  O   -0.492535
    19  C   -0.233174
    20  H    0.168290
    21  H    0.176095
    22  H    0.197361
    23  C   -0.241946
    24  H    0.175943
    25  H    0.191571
    26  H    0.159711
    27  C   -0.241438
    28  H    0.157115
    29  H    0.176653
    30  H    0.189505
    31  C   -0.213041
    32  H    0.181252
    33  H    0.163410
    34  H    0.165386
 Sum of Mulliken charges =   1.00000

 Dipole moment (field-independent basis, Debye):
    X=              2.9097    Y=             -4.0430    Z=             -2.1876  Tot=              5.4404
 Quadrupole moment (field-independent basis, Debye-Ang):
   XX=            -71.5066   YY=            -67.8213   ZZ=            -73.9457
   XY=              3.9150   XZ=             -2.3117   YZ=             -2.7627

  Exact polarizability: 153.974   6.935 153.007  -8.889   3.740 132.396
 Approx polarizability: 174.289   5.387 167.894 -10.221   6.191 158.995

                      1                      2                      3
                      A                      A                      A
 Frequencies --     41.5358                63.3434                71.1228
 Red. masses --      4.1468                 3.6972                 2.3692
 Frc consts  --      0.0042                 0.0087                 0.0071
 IR Inten    --      2.6654                 0.6004                 3.7255

                      4                      5                      6
                      A                      A                      A
 Frequencies --     84.4028               102.4617               119.9366
 Red. masses --      3.2712                 2.4384                 2.1577
 Frc consts  --      0.0137                 0.0151                 0.0183
 IR Inten    --      5.1938                 3.7077                 6.1888

                      7                      8                      9
                      A                      A                      A
 Frequencies --    128.2413               146.4387               172.9775
 Red. masses --      2.8833                 2.7974                 1.7426
 Frc consts  --      0.0279                 0.0353                 0.0307
 IR Inten    --      3.4162                 7.9569                 1.0099

                     10                     11                     12
                      A                      A                      A
 Frequencies --    176.7066               195.8874               200.9119
 Red. masses --      1.4320                 1.5361                 1.2570
 Frc consts  --      0.0263                 0.0347                 0.0299
 IR Inten    --      0.5384                 1.1458                 0.5190

                     13                     14                     15
                      A                      A                      A
 Frequencies --    231.4235               245.9524               260.3894
 Red. masses --      1.7113                 3.4692                 2.8526
 Frc consts  --      0.0540                 0.1236                 0.1140
 IR Inten    --      9.2727                 2.3878                 4.6352

                     16                     17                     18
                      A                      A                      A
 Frequencies --    276.9411               296.8678               301.9255
 Red. masses --      2.9926                 4.0973                 3.1337
 Frc consts  --      0.1352                 0.2127                 0.1683
 IR Inten    --      6.7070                 9.8709                 7.9123

                     19                     20                     21
                      A                      A                      A
 Frequencies --    338.7115               381.5000               411.6376
 Red. masses --      3.9445                 4.1572                 4.0349
 Frc consts  --      0.2666                 0.3565                 0.4028
 IR Inten    --      8.9024                 4.8946                 4.6787

                     22                     23                     24
                      A                      A                      A
 Frequencies --    459.8187               477.6601               489.3691
 Red. masses --      4.9311                 3.4502                 3.6674
 Frc consts  --      0.6143                 0.4638                 0.5175
 IR Inten    --     11.0616                18.4762                11.2742

                     25                     26                     27
                      A                      A                      A
 Frequencies --    573.4254               621.6453               656.3029
 Red. masses --      3.9875                 3.0937                 4.7623
 Frc consts  --      0.7725                 0.7044                 1.2086
 IR Inten    --     32.6182                20.2057                13.2343

                     28                     29                     30
                      A                      A                      A
 Frequencies --    713.6695               770.8450               857.8563
 Red. masses --      4.5448                 4.2299                 2.2509
 Frc consts  --      1.3638                 1.4809                 0.9760
 IR Inten    --     52.2785                68.6669                39.1004

                     31                     32                     33
                      A                      A                      A
 Frequencies --    905.6838               928.7056               965.6877
 Red. masses --      3.3317                 4.3235                 3.7599
 Frc consts  --      1.6102                 2.1970                 2.0659
 IR Inten    --     12.3388                 4.6636                76.4137

                     34                     35                     36
                      A                      A                      A
 Frequencies --    984.4625              1015.6555              1026.6412
 Red. masses --      3.3696                 2.8436                 4.2198
 Frc consts  --      1.9241                 1.7283                 2.6205
 IR Inten    --     23.3364                 9.2681               104.3184

                     37                     38                     39
                      A                      A                      A
 Frequencies --   1039.5449              1075.9210              1107.0400
 Red. masses --      3.3045                 3.0017                 2.5396
 Frc consts  --      2.1040                 2.0473                 1.8337
 IR Inten    --     57.5935                55.0300                 6.5117

                     40                     41                     42
                      A                      A                      A
 Frequencies --   1111.0215              1143.1335              1156.3888
 Red. masses --      2.6425                 3.7397                 3.6888
 Frc consts  --      1.9218                 2.8792                 2.9063
 IR Inten    --     16.5330               334.0476                96.8686

                     43                     44                     45
                      A                      A                      A
 Frequencies --   1168.3001              1175.1218              1185.5339
 Red. masses --      2.3876                 2.5265                 1.3281
 Frc consts  --      1.9201                 2.0556                 1.0998
 IR Inten    --     70.4785               130.6202                12.7418

                     46                     47                     48
                      A                      A                      A
 Frequencies --   1187.7134              1192.2841              1194.9194
 Red. masses --      1.4351                 1.2705                 1.3968
 Frc consts  --      1.1928                 1.0641                 1.1751
 IR Inten    --     34.2283                 1.1599                 8.6949

                     49                     50                     51
                      A                      A                      A
 Frequencies --   1220.4596              1230.4797              1232.8222
 Red. masses --      1.6053                 1.7807                 1.6573
 Frc consts  --      1.4088                 1.5885                 1.4841
 IR Inten    --     39.2679                70.9103                33.8863

                     52                     53                     54
                      A                      A                      A
 Frequencies --   1237.9030              1251.8614              1271.8947
 Red. masses --      1.7075                 1.5423                 1.1285
 Frc consts  --      1.5417                 1.4241                 1.0757
 IR Inten    --     82.2859                19.3295                28.4504

                     55                     56                     57
                      A                      A                      A
 Frequencies --   1301.7055              1319.3952              1342.0665
 Red. masses --      1.3420                 1.2674                 1.3185
 Frc consts  --      1.3397                 1.2999                 1.3992
 IR Inten    --     25.0048                18.3319                19.0584

                     58                     59                     60
                      A                      A                      A
 Frequencies --   1371.6348              1403.9342              1422.1004
 Red. masses --      1.2869                 1.3232                 1.3423
 Frc consts  --      1.4265                 1.5366                 1.5994
 IR Inten    --     12.9980                 8.9357                48.3087

                     61                     62                     63
                      A                      A                      A
 Frequencies --   1426.1687              1436.2659              1461.1371
 Red. masses --      1.3822                 1.2096                 1.1896
 Frc consts  --      1.6563                 1.4701                 1.4963
 IR Inten    --     20.9055                12.0531                17.3101

                     64                     65                     66
                      A                      A                      A
 Frequencies --   1496.9041              1501.2953              1502.6944
 Red. masses --      1.1191                 1.1304                 1.1368
 Frc consts  --      1.4775                 1.5011                 1.5124
 IR Inten    --      5.0144                 0.2430                 3.6714

                     67                     68                     69
                      A                      A                      A
 Frequencies --   1505.3768              1511.0652              1511.3787
 Red. masses --      1.1091                 1.0454                 1.0513
 Frc consts  --      1.4809                 1.4064                 1.4148
 IR Inten    --      4.0544                10.3434                 6.3564

                     70                     71                     72
                      A                      A                      A
 Frequencies --   1515.5419              1517.4233              1522.6021
 Red. masses --      1.0744                 1.0703                 1.0618
 Frc consts  --      1.4539                 1.4520                 1.4503
 IR Inten    --      4.5829                13.8557                15.2600

                     73                     74                     75
                      A                      A                      A
 Frequencies --   1525.5086              1534.1097              1539.3416
 Red. masses --      1.0613                 1.0502                 1.0552
 Frc consts  --      1.4552                 1.4563                 1.4732
 IR Inten    --     19.4692                15.7418                12.4968

                     76                     77                     78
                      A                      A                      A
 Frequencies --   1539.7975              1638.1516              3009.6703
 Red. masses --      1.0944                 6.1864                 1.0785
 Frc consts  --      1.5288                 9.7813                 5.7557
 IR Inten    --      7.1335               255.8876                14.2704

                     79                     80                     81
                      A                      A                      A
 Frequencies --   3021.5816              3032.7913              3034.0476
 Red. masses --      1.0560                 1.0355                 1.0394
 Frc consts  --      5.6805                 5.6115                 5.6374
 IR Inten    --     29.1485                68.8432                38.3699

                     82                     83                     84
                      A                      A                      A
 Frequencies --   3039.4263              3043.9939              3065.3796
 Red. masses --      1.0354                 1.0345                 1.1059
 Frc consts  --      5.6354                 5.6474                 6.1228
 IR Inten    --     10.6359                67.5609                43.2872

                     85                     86                     87
                      A                      A                      A
 Frequencies --   3092.7876              3097.1103              3105.7494
 Red. masses --      1.1074                 1.0856                 1.1059
 Frc consts  --      6.2409                 6.1352                 6.2847
 IR Inten    --     42.1404                 8.0012                58.7518

                     88                     89                     90
                      A                      A                      A
 Frequencies --   3108.5866              3110.1420              3121.2603
 Red. masses --      1.0997                 1.1039                 1.0854
 Frc consts  --      6.2613                 6.2914                 6.2303
 IR Inten    --     50.1406                37.3628                10.8754

                     91                     92                     93
                      A                      A                      A
 Frequencies --   3166.4363              3166.9065              3168.9963
 Red. masses --      1.1011                 1.1017                 1.1013
 Frc consts  --      6.5046                 6.5100                 6.5164
 IR Inten    --     23.1315                21.1016                20.9407

                     94                     95                     96
                      A                      A                      A
 Frequencies --   3179.1413              3180.9844              3201.0036
 Red. masses --      1.0881                 1.1016                 1.0935
 Frc consts  --      6.4795                 6.5673                 6.6015
 IR Inten    --      0.5259                19.0850                 1.7076

 - Thermochemistry -
 -------------------
 Temperature   298.150 Kelvin.  Pressure   1.00000 Atm.
 Atom     1 has atomic number  6 and mass  12.00000

 Molecular mass:   219.12325 amu.
 Principal axes and moments of inertia in atomic units:
                           1         2         3
     Eigenvalues --  2954.169143358.843124658.82882
           X            0.99993   0.01215  -0.00006
           Y           -0.01214   0.99944  -0.03108
           Z           -0.00032   0.03108   0.99952
 This molecule is an asymmetric top.
 Rotational symmetry number  1.
 Warning -- assumption of classical behavior for rotation
           may cause significant error
 Rotational temperatures (Kelvin)      0.02932     0.02579     0.01859
 Rotational constants (GHZ):           0.61091     0.53731     0.38738
 Zero-point vibrational energy     775602.9 (Joules/Mol)
                                  185.37354 (Kcal/Mol)
 Warning -- explicit consideration of  25 degrees of freedom as
           vibrations may cause significant error
 Vibrational temperatures:     59.76    91.14   102.33   121.44   147.42
          (Kelvin)            172.56   184.51   210.69   248.88   254.24
                              281.84   289.07   332.97   353.87   374.64
                              398.46   427.13   434.40   487.33   548.89
                              592.25   661.58   687.25   704.09   825.03
                              894.41   944.27  1026.81  1109.07  1234.26
                             1303.08  1336.20  1389.41  1416.42  1461.30
                             1477.11  1495.67  1548.01  1592.78  1598.51
                             1644.71  1663.79  1680.92  1690.74  1705.72
                             1708.85  1715.43  1719.22  1755.97  1770.39
                             1773.76  1781.07  1801.15  1829.97  1872.86
                             1898.32  1930.93  1973.48  2019.95  2046.09
                             2051.94  2066.47  2102.25  2153.71  2160.03
                             2162.04  2165.90  2174.09  2174.54  2180.53
                             2183.23  2190.68  2194.87  2207.24  2214.77
                             2215.43  2356.93  4330.24  4347.38  4363.51
                             4365.32  4373.06  4379.63  4410.40  4449.83
                             4456.05  4468.48  4472.56  4474.80  4490.80
                             4555.80  4556.47  4559.48  4574.08  4576.73
                             4605.53

 Zero-point correction=                           0.295412 (Hartree/Particle)
 Thermal correction to Energy=                    0.312484
 Thermal correction to Enthalpy=                  0.313429
 Thermal correction to Gibbs Free Energy=         0.250828
 Sum of electronic and zero-point Energies=           -768.031797
 Sum of electronic and thermal Energies=              -768.014724
 Sum of electronic and thermal Enthalpies=            -768.013780
 Sum of electronic and thermal Free Energies=         -768.076380

                     E (Thermal)             CV                S
                      KCal/Mol        Cal/Mol-Kelvin    Cal/Mol-Kelvin
 Total                  196.087             61.362            131.753
 Electronic               0.000              0.000              0.000
 Translational            0.889              2.981             42.056
 Rotational               0.889              2.981             32.203
 Vibrational            194.309             55.400             57.494
 Vibration     1          0.594              1.981              5.184
 Vibration     2          0.597              1.972              4.350
 Vibration     3          0.598              1.968              4.122
 Vibration     4          0.601              1.960              3.786
 Vibration     5          0.605              1.947              3.407
 Vibration     6          0.609              1.933              3.101
 Vibration     7          0.611              1.925              2.972
 Vibration     8          0.617              1.907              2.718
 Vibration     9          0.626              1.876              2.403
 Vibration    10          0.628              1.871              2.363
 Vibration    11          0.636              1.846              2.171
 Vibration    12          0.638              1.839              2.125
 Vibration    13          0.653              1.793              1.868
 Vibration    14          0.660              1.769              1.759
 Vibration    15          0.668              1.745              1.659
 Vibration    16          0.678              1.716              1.552
 Vibration    17          0.691              1.680              1.434
 Vibration    18          0.694              1.670              1.406
 Vibration    19          0.719              1.598              1.218
 Vibration    20          0.751              1.510              1.033
 Vibration    21          0.776              1.445              0.921
 Vibration    22          0.818              1.339              0.767
 Vibration    23          0.834              1.300              0.716
 Vibration    24          0.845              1.274              0.685
 Vibration    25          0.930              1.089              0.498

                           ! Non-Optimized Parameters !
 Normal termination of Gaussian 16 at Fri May 24 09:03:28 2019.
