 Gaussian 16, Revision A.03,
 Gaussian 16:  ES64L-G16RevA.03 25-Dec-2016

 -------------------------------------------------------------------
 #p b3lyp 6-31g* opt freq=noraman scrf=(pcm,solvent=tetrahydrofuran)
 -------------------------------------------------------------------

 -----
 title
 -----
 Symbolic Z-matrix:
 Charge =  1 Multiplicity = 1

 SCF Done:  E(RB3LYP) =  -768.323309686     A.U. after   13 cycles
 Optimization completed.
    -- Stationary point found.
 Normal termination of Gaussian 16 at Fri May 24 08:34:43 2019.

 --------------------------------------------------------------------
 #P Geom=AllCheck Guess=TCheck SCRF=Check GenChk RB3LYP/6-31G(d) Freq
 --------------------------------------------------------------------

 Structure from the checkpoint file:  "/scratch/Gau-183493.chk"
 -----
 title
 -----
 Charge =  1 Multiplicity = 1

                         Standard orientation:
 ---------------------------------------------------------------------
 Center     Atomic      Atomic             Coordinates (Angstroms)
 Number     Number       Type             X           Y           Z
 ---------------------------------------------------------------------
      1          6           0       -0.914321    0.613758   -0.777695
      2          6           0       -1.349693    0.427814    0.697390
      3          6           0       -0.395426   -0.378647    1.524559
      4          6           0        1.180180   -0.787594   -0.300401
      5          6           0        0.068208   -0.467263   -1.305769
      6          1           0       -0.645116   -0.598152    2.563337
      7          1           0       -1.454856    1.416144    1.163055
      8          1           0       -1.816654    0.586062   -1.400332
      9          1           0        1.594804   -1.779448   -0.478928
     10          1           0        0.561646    0.007954   -2.158185
     11          8           0        0.638693   -0.957952    1.112349
     12          8           0       -2.531506   -0.344392    0.830519
     13          8           0       -0.220432    1.841272   -0.902075
     14          8           0       -0.542488   -1.610687   -1.859499
     15          6           0        2.311979    0.225645   -0.198931
     16          1           0        1.931525    1.205142    0.124839
     17          1           0        2.724700    0.347640   -1.213138
     18          8           0        3.268201   -0.291840    0.693298
     19          6           0       -3.575720    0.248348    1.623928
     20          1           0       -4.417511   -0.441854    1.567821
     21          1           0       -3.265831    0.365339    2.667804
     22          1           0       -3.858126    1.222509    1.208855
     23          6           0       -1.059625    2.985423   -1.069667
     24          1           0       -1.720629    3.141412   -0.206041
     25          1           0       -0.393129    3.843722   -1.164899
     26          1           0       -1.670491    2.887746   -1.975387
     27          6           0       -1.130408   -2.585731   -0.994693
     28          1           0       -1.495948   -3.375296   -1.653314
     29          1           0       -0.393270   -3.026104   -0.309654
     30          1           0       -1.969734   -2.177946   -0.422283
     31          6           0        4.407562    0.551619    0.818914
     32          1           0        4.130834    1.543032    1.204527
     33          1           0        5.082296    0.064665    1.525335
     34          1           0        4.919334    0.675989   -0.145961
 ---------------------------------------------------------------------

 SCF Done:  E(RB3LYP) =  -768.323309686     A.U. after    1 cycles

 The electronic state is 1-A.
 Alpha  occ. eigenvalues --  -19.32659 -19.22651 -19.19883 -19.19013 -19.18229
 Alpha  occ. eigenvalues --  -10.39468 -10.31953 -10.31875 -10.29617 -10.29580
 Alpha  occ. eigenvalues --  -10.27841 -10.26792 -10.25711 -10.25074 -10.24604
 Alpha  occ. eigenvalues --   -1.21273  -1.10403  -1.08229  -1.06904  -1.06649
 Alpha  occ. eigenvalues --   -0.87068  -0.85335  -0.77841  -0.75047  -0.73921
 Alpha  occ. eigenvalues --   -0.71323  -0.69805  -0.68347  -0.66225  -0.61639
 Alpha  occ. eigenvalues --   -0.59323  -0.58335  -0.57278  -0.54347  -0.53848
 Alpha  occ. eigenvalues --   -0.53045  -0.51294  -0.50837  -0.50551  -0.48995
 Alpha  occ. eigenvalues --   -0.48371  -0.47988  -0.47358  -0.46414  -0.46122
 Alpha  occ. eigenvalues --   -0.44395  -0.43595  -0.41927  -0.41645  -0.40862
 Alpha  occ. eigenvalues --   -0.39714  -0.37899  -0.36646  -0.35194  -0.34516
 Alpha  occ. eigenvalues --   -0.33112  -0.31028  -0.29215  -0.28653
 Alpha virt. eigenvalues --   -0.14916   0.00584   0.02887   0.04435   0.06397
 Alpha virt. eigenvalues --    0.06783   0.07630   0.08583   0.09715   0.09987
 Alpha virt. eigenvalues --    0.11006   0.11531   0.11807   0.12167   0.12886

 Mulliken charges:
               1
     1  C    0.092944
     2  C    0.030199
     3  C    0.295564
     4  C    0.015750
     5  C    0.098256
     6  H    0.274128
     7  H    0.234865
     8  H    0.198591
     9  H    0.242960
    10  H    0.211660
    11  O   -0.302485
    12  O   -0.457678
    13  O   -0.483729
    14  O   -0.476508
    15  C   -0.023444
    16  H    0.175835
    17  H    0.179601
    18  O   -0.478666
    19  C   -0.234500
    20  H    0.203506
    21  H    0.182187
    22  H    0.184993
    23  C   -0.227261
    24  H    0.158446
    25  H    0.190578
    26  H    0.172735
    27  C   -0.265148
    28  H    0.190562
    29  H    0.156976
    30  H    0.181646
    31  C   -0.212237
    32  H    0.153633
    33  H    0.179007
    34  H    0.157037
 Sum of Mulliken charges =   1.00000

 Dipole moment (field-independent basis, Debye):
    X=             -3.0477    Y=              2.5531    Z=              3.9318  Tot=              5.5916
 Quadrupole moment (field-independent basis, Debye-Ang):
   XX=            -59.8330   YY=            -74.6946   ZZ=            -77.4645
   XY=             -1.2696   XZ=             -8.8947   YZ=             -1.3376

  Exact polarizability: 169.491  -1.891 138.659  -6.554  -0.951 131.306
 Approx polarizability: 184.283  -3.246 157.140  -3.852  -1.190 154.417

                      1                      2                      3
                      A                      A                      A
 Frequencies --     25.0491                62.2694                70.8300
 Red. masses --      3.1359                 3.1291                 3.0628
 Frc consts  --      0.0012                 0.0071                 0.0091
 IR Inten    --      1.9475                 1.5136                 0.8331

                      4                      5                      6
                      A                      A                      A
 Frequencies --     81.8100                92.1742               100.8596
 Red. masses --      2.2106                 2.3421                 2.9814
 Frc consts  --      0.0087                 0.0117                 0.0179
 IR Inten    --      2.1004                 2.5115                 5.4274

                      7                      8                      9
                      A                      A                      A
 Frequencies --    111.4252               134.3128               147.1461
 Red. masses --      2.8065                 2.6128                 2.9968
 Frc consts  --      0.0205                 0.0278                 0.0382
 IR Inten    --      6.3441                 7.4061                 0.7500

                     10                     11                     12
                      A                      A                      A
 Frequencies --    152.8790               190.1084               215.0982
 Red. masses --      2.1916                 1.8119                 1.2192
 Frc consts  --      0.0302                 0.0386                 0.0332
 IR Inten    --      5.0075                 1.8288                 0.6614

                     13                     14                     15
                      A                      A                      A
 Frequencies --    219.5907               228.6564               262.2073
 Red. masses --      1.3267                 1.3650                 3.0984
 Frc consts  --      0.0377                 0.0420                 0.1255
 IR Inten    --      1.1358                12.4904                12.8536

                     16                     17                     18
                      A                      A                      A
 Frequencies --    276.5017               294.7939               318.6981
 Red. masses --      3.1756                 4.5129                 4.5473
 Frc consts  --      0.1430                 0.2311                 0.2721
 IR Inten    --      4.6305                10.2113                 5.0552

                     19                     20                     21
                      A                      A                      A
 Frequencies --    331.4834               363.2896               415.5380
 Red. masses --      4.6308                 3.6124                 4.6445
 Frc consts  --      0.2998                 0.2809                 0.4725
 IR Inten    --     14.1932                 3.8559                 9.7974

                     22                     23                     24
                      A                      A                      A
 Frequencies --    424.1732               491.4647               516.6273
 Red. masses --      3.6189                 4.8216                 3.9639
 Frc consts  --      0.3836                 0.6862                 0.6233
 IR Inten    --      8.8139                 8.6454                15.0641

                     25                     26                     27
                      A                      A                      A
 Frequencies --    554.5939               578.9990               671.0944
 Red. masses --      4.7412                 3.8725                 3.9873
 Frc consts  --      0.8592                 0.7649                 1.0580
 IR Inten    --     25.5851                20.9016                20.9542

                     28                     29                     30
                      A                      A                      A
 Frequencies --    687.5290               841.2752               892.8485
 Red. masses --      4.2025                 2.7143                 3.5178
 Frc consts  --      1.1704                 1.1318                 1.6523
 IR Inten    --     59.7329                 2.9004                18.4453

                     31                     32                     33
                      A                      A                      A
 Frequencies --    902.5908               936.2014               951.3388
 Red. masses --      2.9442                 3.6376                 3.0379
 Frc consts  --      1.4132                 1.8785                 1.6199
 IR Inten    --     46.4033                31.5014                24.3575

                     34                     35                     36
                      A                      A                      A
 Frequencies --    969.4010              1013.7405              1020.2395
 Red. masses --      3.1942                 3.1328                 2.8135
 Frc consts  --      1.7686                 1.8968                 1.7254
 IR Inten    --     56.7509                 4.7529                 7.3114

                     37                     38                     39
                      A                      A                      A
 Frequencies --   1027.1726              1085.4919              1110.7643
 Red. masses --      3.3741                 2.5284                 3.9995
 Frc consts  --      2.0974                 1.7553                 2.9074
 IR Inten    --     23.3828                80.4871                63.5065

                     40                     41                     42
                      A                      A                      A
 Frequencies --   1116.4267              1125.5507              1147.0029
 Red. masses --      3.3035                 3.7276                 2.0153
 Frc consts  --      2.4260                 2.7824                 1.5622
 IR Inten    --    148.2121               195.1246                61.1210

                     43                     44                     45
                      A                      A                      A
 Frequencies --   1161.7641              1165.3410              1186.0970
 Red. masses --      4.3971                 2.7215                 1.2608
 Frc consts  --      3.4966                 2.1775                 1.0450
 IR Inten    --    199.3738               122.4236                 2.9695

                     46                     47                     48
                      A                      A                      A
 Frequencies --   1190.0668              1191.1227              1192.2651
 Red. masses --      1.2820                 1.3159                 1.3046
 Frc consts  --      1.0698                 1.1000                 1.0926
 IR Inten    --      8.3311                 5.4790                10.2089

                     49                     50                     51
                      A                      A                      A
 Frequencies --   1210.3444              1224.8393              1234.6720
 Red. masses --      1.3825                 1.5751                 1.6755
 Frc consts  --      1.1932                 1.3922                 1.5049
 IR Inten    --     14.6222                24.1563                52.0951

                     52                     53                     54
                      A                      A                      A
 Frequencies --   1236.7474              1245.6021              1276.4750
 Red. masses --      1.6235                 1.8758                 1.1923
 Frc consts  --      1.4631                 1.7147                 1.1446
 IR Inten    --     30.0278                25.8683                 2.8972

                     55                     56                     57
                      A                      A                      A
 Frequencies --   1317.2190              1328.0616              1344.5026
 Red. masses --      1.2714                 1.2168                 1.4147
 Frc consts  --      1.2997                 1.2645                 1.5067
 IR Inten    --     12.8479                 5.5247                20.2655

                     58                     59                     60
                      A                      A                      A
 Frequencies --   1350.5307              1375.4088              1387.4211
 Red. masses --      1.2190                 1.3433                 1.5134
 Frc consts  --      1.3100                 1.4973                 1.7164
 IR Inten    --     28.6358                15.0397                52.3655

                     61                     62                     63
                      A                      A                      A
 Frequencies --   1426.2852              1436.2539              1447.6132
 Red. masses --      1.2627                 1.3529                 1.3414
 Frc consts  --      1.5135                 1.6443                 1.6562
 IR Inten    --      5.5314                21.9832                50.6740

                     64                     65                     66
                      A                      A                      A
 Frequencies --   1495.4228              1499.5982              1500.3931
 Red. masses --      1.1127                 1.1277                 1.1271
 Frc consts  --      1.4661                 1.4941                 1.4949
 IR Inten    --      8.1874                 2.9920                 3.8275

                     67                     68                     69
                      A                      A                      A
 Frequencies --   1507.4840              1508.9582              1515.7682
 Red. masses --      1.1304                 1.0468                 1.0458
 Frc consts  --      1.5135                 1.4044                 1.4157
 IR Inten    --      4.2140                10.4532                10.1172

                     70                     71                     72
                      A                      A                      A
 Frequencies --   1518.8794              1522.2883              1522.8627
 Red. masses --      1.0732                 1.0520                 1.0621
 Frc consts  --      1.4587                 1.4364                 1.4513
 IR Inten    --     11.9977                11.7821                10.5795

                     73                     74                     75
                      A                      A                      A
 Frequencies --   1526.5090              1528.5385              1538.8414
 Red. masses --      1.0628                 1.0750                 1.0541
 Frc consts  --      1.4592                 1.4798                 1.4707
 IR Inten    --     22.5669                15.3508                15.4679

                     76                     77                     78
                      A                      A                      A
 Frequencies --   1541.2978              1646.5684              3009.6007
 Red. masses --      1.0935                 5.6039                 1.0565
 Frc consts  --      1.5305                 8.9515                 5.6382
 IR Inten    --      6.9699               323.1860                35.0705

                     79                     80                     81
                      A                      A                      A
 Frequencies --   3018.7156              3028.7418              3036.4670
 Red. masses --      1.0383                 1.0368                 1.0402
 Frc consts  --      5.5746                 5.6036                 5.6510
 IR Inten    --     62.3757                47.0691                46.2503

                     82                     83                     84
                      A                      A                      A
 Frequencies --   3055.4889              3056.0032              3059.1502
 Red. masses --      1.1008                 1.0336                 1.0821
 Frc consts  --      6.0549                 5.6871                 5.9662
 IR Inten    --     59.7418                32.8362                 1.6467

                     85                     86                     87
                      A                      A                      A
 Frequencies --   3072.4625              3076.3233              3092.0225
 Red. masses --      1.1068                 1.0855                 1.1042
 Frc consts  --      6.1562                 6.0527                 6.2197
 IR Inten    --     45.3736                16.3640                58.1817

                     88                     89                     90
                      A                      A                      A
 Frequencies --   3107.7890              3117.4194              3128.0361
 Red. masses --      1.0858                 1.0969                 1.1077
 Frc consts  --      6.1785                 6.2805                 6.3860
 IR Inten    --      6.5121                27.2764                27.9956

                     91                     92                     93
                      A                      A                      A
 Frequencies --   3160.0806              3164.7508              3165.9804
 Red. masses --      1.0992                 1.0878                 1.1033
 Frc consts  --      6.4676                 6.4192                 6.5155
 IR Inten    --     28.9585                 0.6613                18.1663

                     94                     95                     96
                      A                      A                      A
 Frequencies --   3170.9505              3187.3629              3198.4906
 Red. masses --      1.1008                 1.1036                 1.0940
 Frc consts  --      6.5212                 6.6057                 6.5943
 IR Inten    --     19.8968                11.2228                 1.0094

 - Thermochemistry -
 -------------------
 Temperature   298.150 Kelvin.  Pressure   1.00000 Atm.
 Atom     1 has atomic number  6 and mass  12.00000

 Molecular mass:   219.12325 amu.
 Principal axes and moments of inertia in atomic units:
                           1         2         3
     Eigenvalues --  2392.250574412.181944841.92473
           X            0.99994   0.00440  -0.00953
           Y           -0.00439   0.99999   0.00068
           Z            0.00954  -0.00064   0.99995
 This molecule is an asymmetric top.
 Rotational symmetry number  1.
 Warning -- assumption of classical behavior for rotation
           may cause significant error
 Rotational temperatures (Kelvin)      0.03621     0.01963     0.01789
 Rotational constants (GHZ):           0.75441     0.40904     0.37273
 Zero-point vibrational energy     773787.3 (Joules/Mol)
                                  184.93959 (Kcal/Mol)
 Warning -- explicit consideration of  26 degrees of freedom as
           vibrations may cause significant error
 Vibrational temperatures:     36.04    89.59   101.91   117.71   132.62
          (Kelvin)            145.11   160.32   193.25   211.71   219.96
                              273.52   309.48   315.94   328.99   377.26
                              397.82   424.14   458.54   476.93   522.69
                              597.87   610.29   707.11   743.31   797.94
                              833.05   965.56   989.20  1210.41  1284.61
                             1298.63  1346.99  1368.76  1394.75  1458.55
                             1467.90  1477.87  1561.78  1598.14  1606.29
                             1619.42  1650.28  1671.52  1676.67  1706.53
                             1712.24  1713.76  1715.40  1741.42  1762.27
                             1776.42  1779.40  1792.14  1836.56  1895.18
                             1910.78  1934.44  1943.11  1978.91  1996.19
                             2052.11  2066.45  2082.79  2151.58  2157.59
                             2158.73  2168.93  2171.05  2180.85  2185.33
                             2190.23  2191.06  2196.31  2199.23  2214.05
                             2217.58  2369.04  4330.14  4343.26  4357.68
                             4368.80  4396.17  4396.91  4401.43  4420.59
                             4426.14  4448.73  4471.42  4485.27  4500.55
                             4546.65  4553.37  4555.14  4562.29  4585.90
                             4601.91

 Zero-point correction=                           0.294720 (Hartree/Particle)
 Thermal correction to Energy=                    0.312085
 Thermal correction to Enthalpy=                  0.313029
 Thermal correction to Gibbs Free Energy=         0.249000
 Sum of electronic and zero-point Energies=           -768.028590
 Sum of electronic and thermal Energies=              -768.011225
 Sum of electronic and thermal Enthalpies=            -768.010281
 Sum of electronic and thermal Free Energies=         -768.074310

                     E (Thermal)             CV                S
                      KCal/Mol        Cal/Mol-Kelvin    Cal/Mol-Kelvin
 Total                  195.836             61.597            134.762
 Electronic               0.000              0.000              0.000
 Translational            0.889              2.981             42.056
 Rotational               0.889              2.981             32.302
 Vibrational            194.059             55.636             60.403
 Vibration     1          0.593              1.985              6.187
 Vibration     2          0.597              1.972              4.384
 Vibration     3          0.598              1.968              4.130
 Vibration     4          0.600              1.962              3.847
 Vibration     5          0.602              1.955              3.613
 Vibration     6          0.604              1.948              3.438
 Vibration     7          0.607              1.940              3.244
 Vibration     8          0.613              1.919              2.883
 Vibration     9          0.617              1.906              2.709
 Vibration    10          0.619              1.899              2.636
 Vibration    11          0.633              1.854              2.227
 Vibration    12          0.645              1.818              2.000
 Vibration    13          0.647              1.811              1.962
 Vibration    14          0.651              1.797              1.889
 Vibration    15          0.670              1.742              1.647
 Vibration    16          0.678              1.717              1.555
 Vibration    17          0.689              1.683              1.446
 Vibration    18          0.705              1.638              1.317
 Vibration    19          0.714              1.613              1.253
 Vibration    20          0.737              1.548              1.108
 Vibration    21          0.779              1.436              0.907
 Vibration    22          0.786              1.418              0.878
 Vibration    23          0.847              1.269              0.680
 Vibration    24          0.872              1.213              0.618
 Vibration    25          0.910              1.130              0.535
 Vibration    26          0.936              1.077              0.487

                           ! Non-Optimized Parameters !
 Normal termination of Gaussian 16 at Fri May 24 08:53:34 2019.
