 Gaussian 16, Revision A.03,
 Gaussian 16:  ES64L-G16RevA.03 25-Dec-2016

 -------------------------------------------------------------------
 #p b3lyp 6-31g* opt freq=noraman scrf=(pcm,solvent=tetrahydrofuran)
 -------------------------------------------------------------------

 -----
 title
 -----
 Symbolic Z-matrix:
 Charge =  1 Multiplicity = 1

 SCF Done:  E(RB3LYP) =  -768.322021415     A.U. after   13 cycles
 Optimization completed.
    -- Stationary point found.
 Normal termination of Gaussian 16 at Fri May 24 08:32:50 2019.

 --------------------------------------------------------------------
 #P Geom=AllCheck Guess=TCheck SCRF=Check GenChk RB3LYP/6-31G(d) Freq
 --------------------------------------------------------------------

 Structure from the checkpoint file:  "/scratch/Gau-144246.chk"
 -----
 title
 -----
 Charge =  1 Multiplicity = 1

                         Standard orientation:
 ---------------------------------------------------------------------
 Center     Atomic      Atomic             Coordinates (Angstroms)
 Number     Number       Type             X           Y           Z
 ---------------------------------------------------------------------
      1          6           0        1.279748    0.347271    0.164454
      2          6           0        1.459463   -1.069306   -0.463141
      3          6           0        0.309629   -1.946469   -0.087133
      4          6           0       -1.230858   -0.074804    0.264761
      5          6           0       -0.116777    0.853031   -0.267358
      6          1           0        0.433857   -3.030857   -0.053529
      7          1           0        1.348169   -0.972982   -1.559529
      8          1           0        1.309598    0.251279    1.254780
      9          1           0       -1.389251    0.044191    1.337892
     10          1           0       -0.174445    0.854798   -1.361802
     11          8           0       -0.848277   -1.544425    0.182243
     12          8           0        2.683384   -1.711133   -0.279093
     13          8           0        2.338512    1.210099   -0.137403
     14          8           0       -0.408857    2.181015    0.097848
     15          6           0       -2.549491    0.051245   -0.468743
     16          1           0       -2.447307   -0.328013   -1.498701
     17          1           0       -2.773762    1.127854   -0.527540
     18          8           0       -3.524869   -0.653791    0.256078
     19          6           0        3.166744   -1.783796    1.072122
     20          1           0        3.437530   -0.792487    1.447273
     21          1           0        2.432649   -2.251609    1.741837
     22          1           0        4.056977   -2.411560    1.028784
     23          6           0        2.525055    1.586187   -1.505007
     24          1           0        1.678209    2.167209   -1.884885
     25          1           0        3.419117    2.210798   -1.515546
     26          1           0        2.700214    0.714205   -2.148062
     27          6           0       -0.091296    2.598110    1.433634
     28          1           0       -0.575228    1.973207    2.194069
     29          1           0        0.990571    2.611300    1.595561
     30          1           0       -0.481942    3.613227    1.516528
     31          6           0       -4.818802   -0.561066   -0.329357
     32          1           0       -5.494574   -1.129367    0.312404
     33          1           0       -5.158488    0.482961   -0.381378
     34          1           0       -4.831533   -0.990691   -1.340927
 ---------------------------------------------------------------------

 SCF Done:  E(RB3LYP) =  -768.322021415     A.U. after    1 cycles

 The electronic state is 1-A.
 Alpha  occ. eigenvalues --  -19.33236 -19.21004 -19.19937 -19.19916 -19.18285
 Alpha  occ. eigenvalues --  -10.39988 -10.32377 -10.32274 -10.30267 -10.30230
 Alpha  occ. eigenvalues --  -10.27878 -10.26145 -10.25500 -10.25374 -10.24623
 Alpha  occ. eigenvalues --   -1.21802  -1.10044  -1.08560  -1.06937  -1.06681
 Alpha  occ. eigenvalues --   -0.87514  -0.86149  -0.77871  -0.75822  -0.74439
 Alpha  occ. eigenvalues --   -0.72088  -0.69139  -0.67920  -0.65736  -0.62599
 Alpha  occ. eigenvalues --   -0.60673  -0.58847  -0.55780  -0.55120  -0.54334
 Alpha  occ. eigenvalues --   -0.53089  -0.52106  -0.51209  -0.50266  -0.49384
 Alpha  occ. eigenvalues --   -0.48870  -0.47903  -0.46777  -0.45960  -0.44923
 Alpha  occ. eigenvalues --   -0.44066  -0.43375  -0.42687  -0.42145  -0.41877
 Alpha  occ. eigenvalues --   -0.40555  -0.37089  -0.36097  -0.35428  -0.35005
 Alpha  occ. eigenvalues --   -0.32487  -0.31112  -0.29216  -0.28737
 Alpha virt. eigenvalues --   -0.15531  -0.00734   0.04501   0.04805   0.05812
 Alpha virt. eigenvalues --    0.06961   0.07412   0.08069   0.09061   0.10349
 Alpha virt. eigenvalues --    0.11072   0.11522   0.11873   0.13026   0.13527

 Mulliken charges:
               1
     1  C    0.091762
     2  C    0.029898
     3  C    0.284156
     4  C    0.053585
     5  C    0.081280
     6  H    0.282842
     7  H    0.250875
     8  H    0.194877
     9  H    0.238632
    10  H    0.191581
    11  O   -0.299134
    12  O   -0.468532
    13  O   -0.468657
    14  O   -0.479404
    15  C   -0.020267
    16  H    0.167595
    17  H    0.186867
    18  O   -0.481859
    19  C   -0.244234
    20  H    0.186243
    21  H    0.162849
    22  H    0.199699
    23  C   -0.242919
    24  H    0.174541
    25  H    0.193756
    26  H    0.165300
    27  C   -0.242760
    28  H    0.162347
    29  H    0.180013
    30  H    0.191203
    31  C   -0.212497
    32  H    0.178947
    33  H    0.156527
    34  H    0.154888
 Sum of Mulliken charges =   1.00000

 Dipole moment (field-independent basis, Debye):
    X=             -0.0901    Y=             -3.3256    Z=             -0.3305  Tot=              3.3432
 Quadrupole moment (field-independent basis, Debye-Ang):
   XX=            -68.7348   YY=            -74.0037   ZZ=            -76.9129
   XY=             -3.6946   XZ=              4.9207   YZ=              0.0575

  Exact polarizability: 164.540  -1.020 147.708  -4.119  -0.157 120.603
 Approx polarizability: 174.928   0.682 168.411  -6.247  -0.802 148.462

                      1                      2                      3
                      A                      A                      A
 Frequencies --     28.0267                48.3971                61.6079
 Red. masses --      3.0303                 2.8706                 2.8530
 Frc consts  --      0.0014                 0.0040                 0.0064
 IR Inten    --      1.1364                 2.5408                 1.2322

                      4                      5                      6
                      A                      A                      A
 Frequencies --     74.2994                89.1712                91.1348
 Red. masses --      3.5572                 3.3468                 2.2697
 Frc consts  --      0.0116                 0.0157                 0.0111
 IR Inten    --      0.2860                 3.1824                12.0204

                      7                      8                      9
                      A                      A                      A
 Frequencies --    124.7779               135.7575               175.3440
 Red. masses --      2.7299                 2.4794                 1.4506
 Frc consts  --      0.0250                 0.0269                 0.0263
 IR Inten    --      2.5825                 7.7278                 1.4957

                     10                     11                     12
                      A                      A                      A
 Frequencies --    181.9726               188.8926               199.5360
 Red. masses --      1.2713                 2.3329                 1.4840
 Frc consts  --      0.0248                 0.0490                 0.0348
 IR Inten    --      1.6457                 1.2004                 2.1126

                     13                     14                     15
                      A                      A                      A
 Frequencies --    216.0771               233.4837               252.1421
 Red. masses --      1.3561                 2.6908                 3.3656
 Frc consts  --      0.0373                 0.0864                 0.1261
 IR Inten    --      9.0243                 1.2904                13.6077

                     16                     17                     18
                      A                      A                      A
 Frequencies --    270.0469               282.8630               324.5025
 Red. masses --      2.8467                 3.6974                 3.1941
 Frc consts  --      0.1223                 0.1743                 0.1982
 IR Inten    --      4.8504                 9.2370                 2.4990

                     19                     20                     21
                      A                      A                      A
 Frequencies --    340.1783               353.6328               368.3242
 Red. masses --      4.3357                 4.9980                 3.7984
 Frc consts  --      0.2956                 0.3683                 0.3036
 IR Inten    --      4.0304                 1.5829                19.0667

                     22                     23                     24
                      A                      A                      A
 Frequencies --    452.7694               492.7720               521.4921
 Red. masses --      4.8252                 3.9224                 3.9409
 Frc consts  --      0.5828                 0.5612                 0.6315
 IR Inten    --      2.0214                11.5591                17.3119

                     25                     26                     27
                      A                      A                      A
 Frequencies --    567.4594               581.0644               643.1398
 Red. masses --      3.2111                 4.3222                 3.1851
 Frc consts  --      0.6092                 0.8598                 0.7762
 IR Inten    --      8.4970                13.8002                20.5466

                     28                     29                     30
                      A                      A                      A
 Frequencies --    710.1646               718.2116               834.7904
 Red. masses --      3.5069                 4.4855                 2.3317
 Frc consts  --      1.0421                 1.3632                 0.9574
 IR Inten    --     96.7578                49.8563                25.6504

                     31                     32                     33
                      A                      A                      A
 Frequencies --    908.4850               948.6979               962.8371
 Red. masses --      4.6525                 3.5891                 4.0461
 Frc consts  --      2.2624                 1.9032                 2.2100
 IR Inten    --      9.2320                24.1846                80.6154

                     34                     35                     36
                      A                      A                      A
 Frequencies --    981.5074              1004.5696              1039.2852
 Red. masses --      4.1256                 2.6784                 2.8661
 Frc consts  --      2.3417                 1.5925                 1.8239
 IR Inten    --     37.7606                65.0156                 2.5417

                     37                     38                     39
                      A                      A                      A
 Frequencies --   1056.2927              1081.9095              1102.8164
 Red. masses --      2.9668                 2.8067                 3.3253
 Frc consts  --      1.9503                 1.9356                 2.3828
 IR Inten    --     71.2301                11.4931                12.1559

                     40                     41                     42
                      A                      A                      A
 Frequencies --   1140.8210              1149.6676              1162.3842
 Red. masses --      3.0052                 2.5977                 3.8115
 Frc consts  --      2.3044                 2.0229                 3.0342
 IR Inten    --    108.8697                54.5131               183.1116

                     43                     44                     45
                      A                      A                      A
 Frequencies --   1172.4073              1177.0993              1182.1808
 Red. masses --      1.7329                 1.5146                 1.8320
 Frc consts  --      1.4034                 1.2364                 1.5085
 IR Inten    --     69.7412                24.8893                97.0307

                     46                     47                     48
                      A                      A                      A
 Frequencies --   1186.2724              1188.9419              1196.0727
 Red. masses --      1.3556                 1.5218                 2.0143
 Frc consts  --      1.1240                 1.2674                 1.6978
 IR Inten    --     12.8173                47.9540                83.8890

                     49                     50                     51
                      A                      A                      A
 Frequencies --   1228.5847              1231.1580              1232.7662
 Red. masses --      1.7580                 1.6183                 1.7244
 Frc consts  --      1.5634                 1.4452                 1.5440
 IR Inten    --     67.6697                30.6510                40.7923

                     52                     53                     54
                      A                      A                      A
 Frequencies --   1241.1422              1254.0114              1277.5083
 Red. masses --      1.8180                 1.4808                 1.2767
 Frc consts  --      1.6500                 1.3719                 1.2276
 IR Inten    --    108.5287                19.3709                16.3343

                     55                     56                     57
                      A                      A                      A
 Frequencies --   1293.2085              1333.1586              1351.4474
 Red. masses --      1.3173                 1.1914                 1.3070
 Frc consts  --      1.2979                 1.2476                 1.4064
 IR Inten    --     59.1124                40.4642                 4.2698

                     58                     59                     60
                      A                      A                      A
 Frequencies --   1374.9649              1405.4666              1416.3902
 Red. masses --      1.1877                 1.3559                 1.2965
 Frc consts  --      1.3230                 1.5781                 1.5325
 IR Inten    --      3.8709                26.9196                 1.1946

                     61                     62                     63
                      A                      A                      A
 Frequencies --   1439.3114              1447.5678              1461.7397
 Red. masses --      1.2396                 1.3898                 1.1727
 Frc consts  --      1.5130                 1.7158                 1.4764
 IR Inten    --      1.4599                25.4109                21.3965

                     64                     65                     66
                      A                      A                      A
 Frequencies --   1495.1058              1496.8987              1500.4001
 Red. masses --      1.1434                 1.1496                 1.1400
 Frc consts  --      1.5059                 1.5177                 1.5121
 IR Inten    --      7.6847                 0.3831                 0.1588

                     67                     68                     69
                      A                      A                      A
 Frequencies --   1504.7518              1507.4359              1507.8409
 Red. masses --      1.1372                 1.0468                 1.0573
 Frc consts  --      1.5171                 1.4015                 1.4163
 IR Inten    --      2.4844                 9.2360                 8.3886

                     70                     71                     72
                      A                      A                      A
 Frequencies --   1515.3331              1516.8542              1518.6335
 Red. masses --      1.0486                 1.0632                 1.0466
 Frc consts  --      1.4187                 1.4414                 1.4221
 IR Inten    --      6.0722                17.9564                15.9342

                     73                     74                     75
                      A                      A                      A
 Frequencies --   1523.9856              1530.8040              1537.9806
 Red. masses --      1.0471                 1.0512                 1.0546
 Frc consts  --      1.4328                 1.4514                 1.4698
 IR Inten    --     10.4782                18.5701                19.4828

                     76                     77                     78
                      A                      A                      A
 Frequencies --   1541.4949              1643.6523              2979.3467
 Red. masses --      1.0989                 7.1592                 1.0779
 Frc consts  --      1.5384                11.3956                 5.6374
 IR Inten    --      4.8642               235.7327                27.2232

                     79                     80                     81
                      A                      A                      A
 Frequencies --   2997.3902              3018.2286              3035.1193
 Red. masses --      1.0562                 1.0373                 1.0424
 Frc consts  --      5.5909                 5.5675                 5.6578
 IR Inten    --     35.5533                64.9454                36.0662

                     82                     83                     84
                      A                      A                      A
 Frequencies --   3039.1930              3040.8130              3049.3563
 Red. masses --      1.1033                 1.0370                 1.0367
 Frc consts  --      6.0042                 5.6496                 5.6795
 IR Inten    --     36.3954                31.5173                48.0840

                     85                     86                     87
                      A                      A                      A
 Frequencies --   3071.1519              3071.3229              3110.8794
 Red. masses --      1.0852                 1.1068                 1.0943
 Frc consts  --      6.0307                 6.1513                 6.2396
 IR Inten    --     19.9114                57.6623                26.5290

                     88                     89                     90
                      A                      A                      A
 Frequencies --   3112.2996              3122.5710              3125.2250
 Red. masses --      1.0937                 1.0965                 1.1018
 Frc consts  --      6.2418                 6.2993                 6.3401
 IR Inten    --     39.3798                30.8870                40.7538

                     91                     92                     93
                      A                      A                      A
 Frequencies --   3152.2420              3159.5583              3171.3035
 Red. masses --      1.0863                 1.0993                 1.1038
 Frc consts  --      6.3595                 6.4655                 6.5404
 IR Inten    --      1.2861                28.6275                18.3887

                     94                     95                     96
                      A                      A                      A
 Frequencies --   3171.8040              3181.0758              3185.7836
 Red. masses --      1.1012                 1.1028                 1.0949
 Frc consts  --      6.5274                 6.5749                 6.5474
 IR Inten    --     19.4132                14.4510                 1.9198

 - Thermochemistry -
 -------------------
 Temperature   298.150 Kelvin.  Pressure   1.00000 Atm.
 Atom     1 has atomic number  6 and mass  12.00000

 Molecular mass:   219.12325 amu.
 Principal axes and moments of inertia in atomic units:
                           1         2         3
     Eigenvalues --  2109.861484672.755495951.93684
           X            0.99997  -0.00205   0.00791
           Y            0.00207   0.99999  -0.00270
           Z           -0.00790   0.00272   0.99997
 This molecule is an asymmetric top.
 Rotational symmetry number  1.
 Warning -- assumption of classical behavior for rotation
           may cause significant error
 Rotational temperatures (Kelvin)      0.04105     0.01854     0.01455
 Rotational constants (GHZ):           0.85538     0.38623     0.30322
 Zero-point vibrational energy     773556.5 (Joules/Mol)
                                  184.88443 (Kcal/Mol)
 Warning -- explicit consideration of  26 degrees of freedom as
           vibrations may cause significant error
 Vibrational temperatures:     40.32    69.63    88.64   106.90   128.30
          (Kelvin)            131.12   179.53   195.32   252.28   261.82
                              271.77   287.09   310.89   335.93   362.78
                              388.54   406.98   466.89   489.44   508.80
                              529.94   651.43   708.99   750.31   816.45
                              836.02   925.33  1021.77  1033.35  1201.08
                             1307.11  1364.96  1385.31  1412.17  1445.35
                             1495.30  1519.77  1556.63  1586.71  1641.39
                             1654.12  1672.41  1686.83  1693.58  1700.89
                             1706.78  1710.62  1720.88  1767.66  1771.36
                             1773.68  1785.73  1804.24  1838.05  1860.64
                             1918.12  1944.43  1978.27  2022.15  2037.87
                             2070.85  2082.73  2103.12  2151.12  2153.70
                             2158.74  2165.00  2168.86  2169.45  2180.23
                             2182.41  2184.97  2192.68  2202.49  2212.81
                             2217.87  2364.85  4286.62  4312.58  4342.56
                             4366.86  4372.72  4375.05  4387.34  4418.70
                             4418.95  4475.86  4477.90  4492.68  4496.50
                             4535.37  4545.90  4562.80  4563.52  4576.86
                             4583.63

 Zero-point correction=                           0.294632 (Hartree/Particle)
 Thermal correction to Energy=                    0.312051
 Thermal correction to Enthalpy=                  0.312995
 Thermal correction to Gibbs Free Energy=         0.248644
 Sum of electronic and zero-point Energies=           -768.027389
 Sum of electronic and thermal Energies=              -768.009970
 Sum of electronic and thermal Enthalpies=            -768.009026
 Sum of electronic and thermal Free Energies=         -768.073377

                     E (Thermal)             CV                S
                      KCal/Mol        Cal/Mol-Kelvin    Cal/Mol-Kelvin
 Total                  195.815             61.710            135.438
 Electronic               0.000              0.000              0.000
 Translational            0.889              2.981             42.056
 Rotational               0.889              2.981             32.440
 Vibrational            194.037             55.749             60.942
 Vibration     1          0.593              1.984              5.964
 Vibration     2          0.595              1.978              4.882
 Vibration     3          0.597              1.973              4.405
 Vibration     4          0.599              1.966              4.036
 Vibration     5          0.602              1.957              3.678
 Vibration     6          0.602              1.955              3.636
 Vibration     7          0.610              1.928              3.025
 Vibration     8          0.614              1.918              2.863
 Vibration     9          0.627              1.873              2.377
 Vibration    10          0.630              1.864              2.308
 Vibration    11          0.633              1.855              2.239
 Vibration    12          0.638              1.841              2.137
 Vibration    13          0.645              1.817              1.992
 Vibration    14          0.654              1.790              1.852
 Vibration    15          0.664              1.759              1.716
 Vibration    16          0.674              1.728              1.596
 Vibration    17          0.682              1.705              1.516
 Vibration    18          0.709              1.626              1.287
 Vibration    19          0.720              1.595              1.211
 Vibration    20          0.730              1.568              1.150
 Vibration    21          0.741              1.537              1.087
 Vibration    22          0.811              1.355              0.787
 Vibration    23          0.848              1.266              0.676
 Vibration    24          0.876              1.202              0.607
 Vibration    25          0.923              1.102              0.509
 Vibration    26          0.938              1.072              0.483

 Optimization completed.
    -- Stationary point found.
 Normal termination of Gaussian 16 at Fri May 24 08:52:24 2019.
