 Gaussian 16, Revision A.03,
 Gaussian 16:  ES64L-G16RevA.03 25-Dec-2016

 -------------------------------------------------------------------
 #p b3lyp 6-31g* opt freq=noraman scrf=(pcm,solvent=tetrahydrofuran)
 -------------------------------------------------------------------

 -----
 title
 -----
 Symbolic Z-matrix:
 Charge =  1 Multiplicity = 1

 SCF Done:  E(RB3LYP) =  -768.327346979     A.U. after   13 cycles
 Optimization completed.
    -- Stationary point found.
 Normal termination of Gaussian 16 at Fri May 24 08:35:51 2019.

 --------------------------------------------------------------------
 #P Geom=AllCheck Guess=TCheck SCRF=Check GenChk RB3LYP/6-31G(d) Freq
 --------------------------------------------------------------------

 Structure from the checkpoint file:  "/scratch/Gau-27618.chk"
 -----
 title
 -----
 Charge =  1 Multiplicity = 1

                         Standard orientation:
 ---------------------------------------------------------------------
 Center     Atomic      Atomic             Coordinates (Angstroms)
 Number     Number       Type             X           Y           Z
 ---------------------------------------------------------------------
      1          6           0        1.507134    0.315976   -0.382211
      2          6           0        1.514545   -1.226051   -0.514873
      3          6           0        0.316662   -1.499425   -1.390118
      4          6           0       -0.971866   -0.177135    0.153615
      5          6           0        0.215435    0.795782    0.326298
      6          1           0        0.341810   -2.084479   -2.309179
      7          1           0        2.429279   -1.563006   -1.014915
      8          1           0        2.379885    0.658280    0.186308
      9          1           0       -0.971696   -0.901201    0.966527
     10          1           0       -0.059612    1.767723   -0.105502
     11          8           0       -0.807412   -1.039750   -1.086215
     12          8           0        1.249790   -1.934998    0.672235
     13          8           0        1.551093    0.740754   -1.734139
     14          8           0        0.377574    0.896956    1.726773
     15          6           0       -2.316192    0.491964    0.001404
     16          1           0       -2.357583    1.047409   -0.949648
     17          1           0       -2.401236    1.224996    0.821049
     18          8           0       -3.312535   -0.495777    0.073821
     19          6           0        2.366080   -2.019859    1.571367
     20          1           0        3.246885   -2.423019    1.058176
     21          1           0        2.596480   -1.041158    2.004296
     22          1           0        2.055954   -2.704208    2.361580
     23          6           0        2.105335    2.040606   -1.951620
     24          1           0        1.523047    2.822080   -1.448145
     25          1           0        3.143760    2.078816   -1.599824
     26          1           0        2.077144    2.210143   -3.028921
     27          6           0        0.824037    2.179080    2.172757
     28          1           0        0.104832    2.961239    1.897681
     29          1           0        1.808762    2.435119    1.761324
     30          1           0        0.896005    2.115733    3.259580
     31          6           0       -4.622937    0.031440   -0.096805
     32          1           0       -4.736291    0.507588   -1.081176
     33          1           0       -5.312934   -0.811085   -0.021856
     34          1           0       -4.861987    0.767297    0.683960
 ---------------------------------------------------------------------

 SCF Done:  E(RB3LYP) =  -768.327346979     A.U. after    1 cycles

 The electronic state is 1-A.
 Alpha  occ. eigenvalues --  -19.32860 -19.21023 -19.20091 -19.19485 -19.18067
 Alpha  occ. eigenvalues --  -10.39754 -10.31485 -10.31297 -10.29618 -10.29393
 Alpha  occ. eigenvalues --  -10.27532 -10.25926 -10.25744 -10.25363 -10.24465
 Alpha  occ. eigenvalues --   -1.21734  -1.09550  -1.08138  -1.07375  -1.06493
 Alpha  occ. eigenvalues --   -0.86956  -0.85362  -0.77100  -0.74696  -0.73900
 Alpha  occ. eigenvalues --   -0.69968  -0.69247  -0.68592  -0.65784  -0.61395
 Alpha  occ. eigenvalues --   -0.60872  -0.58280  -0.56925  -0.54436  -0.53217
 Alpha  occ. eigenvalues --   -0.51809  -0.51102  -0.50432  -0.50158  -0.49606
 Alpha  occ. eigenvalues --   -0.48644  -0.47665  -0.46854  -0.46274  -0.45606
 Alpha  occ. eigenvalues --   -0.43594  -0.43075  -0.42423  -0.41599  -0.40551
 Alpha  occ. eigenvalues --   -0.39656  -0.37467  -0.36318  -0.36165  -0.35160
 Alpha  occ. eigenvalues --   -0.32182  -0.31190  -0.28789  -0.28454
 Alpha virt. eigenvalues --   -0.15282   0.00686   0.04051   0.05664   0.06393
 Alpha virt. eigenvalues --    0.07002   0.08123   0.09070   0.09909   0.10489
 Alpha virt. eigenvalues --    0.11409   0.11795   0.12717   0.12974   0.13028

 Mulliken charges:
               1
     1  C    0.059333
     2  C    0.065420
     3  C    0.311663
     4  C    0.058392
     5  C    0.110731
     6  H    0.280480
     7  H    0.211250
     8  H    0.196356
     9  H    0.254374
    10  H    0.183838
    11  O   -0.290720
    12  O   -0.485073
    13  O   -0.495341
    14  O   -0.482489
    15  C   -0.032482
    16  H    0.168611
    17  H    0.180351
    18  O   -0.480506
    19  C   -0.223038
    20  H    0.171792
    21  H    0.174944
    22  H    0.195413
    23  C   -0.223313
    24  H    0.165327
    25  H    0.170764
    26  H    0.189653
    27  C   -0.226442
    28  H    0.165812
    29  H    0.160782
    30  H    0.188153
    31  C   -0.211581
    32  H    0.154057
    33  H    0.178270
    34  H    0.155219
 Sum of Mulliken charges =   1.00000

 Dipole moment (field-independent basis, Debye):
    X=              3.2956    Y=              0.9429    Z=             -2.2849  Tot=              4.1196
 Quadrupole moment (field-independent basis, Debye-Ang):
   XX=            -60.8975   YY=            -69.0988   ZZ=            -76.1222
   XY=             -5.2775   XZ=              1.0771   YZ=              4.9357

  Exact polarizability: 152.192  -3.619 136.467  -1.692   3.074 139.094
 Approx polarizability: 162.469  -1.958 155.072  -2.289   2.915 160.735

                      1                      2                      3
                      A                      A                      A
 Frequencies --     41.4091                57.0693                68.1043
 Red. masses --      3.9231                 2.7792                 3.1065
 Frc consts  --      0.0040                 0.0053                 0.0085
 IR Inten    --      0.4682                 6.0749                 0.4851

                      4                      5                      6
                      A                      A                      A
 Frequencies --     88.5370                91.6929                96.6252
 Red. masses --      3.0254                 3.2684                 2.2478
 Frc consts  --      0.0140                 0.0162                 0.0124
 IR Inten    --      7.1395                 0.7470                 1.1958

                      7                      8                      9
                      A                      A                      A
 Frequencies --    113.8184               140.1667               154.8740
 Red. masses --      2.1922                 2.5734                 2.6166
 Frc consts  --      0.0167                 0.0298                 0.0370
 IR Inten    --      5.4135                12.3581                 6.4666

                     10                     11                     12
                      A                      A                      A
 Frequencies --    170.9135               183.0585               202.9182
 Red. masses --      2.0837                 1.3437                 1.5546
 Frc consts  --      0.0359                 0.0265                 0.0377
 IR Inten    --      5.2629                 0.9003                 1.2446

                     13                     14                     15
                      A                      A                      A
 Frequencies --    214.3713               237.1056               250.1285
 Red. masses --      1.5701                 1.5730                 3.1282
 Frc consts  --      0.0425                 0.0521                 0.1153
 IR Inten    --      2.6138                 0.9179                12.9461

                     16                     17                     18
                      A                      A                      A
 Frequencies --    261.3015               288.1384               313.1551
 Red. masses --      2.7525                 3.0390                 3.4774
 Frc consts  --      0.1107                 0.1487                 0.2009
 IR Inten    --     12.4995                14.4732                 1.7230

                     19                     20                     21
                      A                      A                      A
 Frequencies --    362.7194               368.1047               393.9412
 Red. masses --      3.2267                 3.4117                 3.8049
 Frc consts  --      0.2501                 0.2724                 0.3479
 IR Inten    --      6.2331                10.3949                13.1280

                     22                     23                     24
                      A                      A                      A
 Frequencies --    435.3078               455.1361               492.7766
 Red. masses --      4.1685                 4.8794                 5.2805
 Frc consts  --      0.4654                 0.5955                 0.7555
 IR Inten    --      4.2957                16.4969                 5.2282

                     25                     26                     27
                      A                      A                      A
 Frequencies --    545.5965               582.8572               633.0063
 Red. masses --      3.5498                 4.4851                 3.6571
 Frc consts  --      0.6226                 0.8977                 0.8634
 IR Inten    --     40.2645                24.3096                 4.0404

                     28                     29                     30
                      A                      A                      A
 Frequencies --    712.1284               860.9339               883.9057
 Red. masses --      4.1004                 3.1567                 3.7087
 Frc consts  --      1.2252                 1.3785                 1.7072
 IR Inten    --     50.7470                 8.2296                21.0221

                     31                     32                     33
                      A                      A                      A
 Frequencies --    921.3419               959.4430               963.1882
 Red. masses --      3.0787                 3.7216                 3.7672
 Frc consts  --      1.5398                 2.0184                 2.0592
 IR Inten    --     29.8548                27.3773                30.9399

                     34                     35                     36
                      A                      A                      A
 Frequencies --    979.4466              1019.8144              1028.3602
 Red. masses --      3.1642                 2.5597                 3.5928
 Frc consts  --      1.7884                 1.5685                 2.2386
 IR Inten    --     14.7432                 2.4390                59.3997

                     37                     38                     39
                      A                      A                      A
 Frequencies --   1054.9458              1076.1879              1121.2530
 Red. masses --      2.8728                 2.1139                 3.3030
 Frc consts  --      1.8837                 1.4425                 2.4466
 IR Inten    --     60.5153                 4.0091               112.8439

                     40                     41                     42
                      A                      A                      A
 Frequencies --   1129.6491              1134.6025              1144.8733
 Red. masses --      4.7123                 4.8778                 3.2283
 Frc consts  --      3.5430                 3.6997                 2.4931
 IR Inten    --     34.0881               260.7904               184.1428

                     43                     44                     45
                      A                      A                      A
 Frequencies --   1150.7567              1170.1691              1182.0958
 Red. masses --      3.0214                 3.0632                 1.2951
 Frc consts  --      2.3574                 2.4713                 1.0662
 IR Inten    --    169.2998                92.9840                 2.6431

                     46                     47                     48
                      A                      A                      A
 Frequencies --   1185.2472              1188.7691              1192.3617
 Red. masses --      1.2741                 1.2657                 1.3337
 Frc consts  --      1.0546                 1.0538                 1.1172
 IR Inten    --      2.9814                 1.3945                 2.1655

                     49                     50                     51
                      A                      A                      A
 Frequencies --   1217.2542              1222.8589              1227.0713
 Red. masses --      1.4229                 1.5352                 1.5743
 Frc consts  --      1.2422                 1.3526                 1.3966
 IR Inten    --     50.3813                33.8681                29.7630

                     52                     53                     54
                      A                      A                      A
 Frequencies --   1236.6403              1262.2777              1284.5101
 Red. masses --      1.6891                 1.5223                 1.4727
 Frc consts  --      1.5219                 1.4291                 1.4317
 IR Inten    --     24.6547                24.7036                 5.6486

                     55                     56                     57
                      A                      A                      A
 Frequencies --   1290.0626              1342.8825              1348.8389
 Red. masses --      1.1499                 1.1561                 1.1707
 Frc consts  --      1.1275                 1.2283                 1.2549
 IR Inten    --     17.1912                 5.5441                39.4856

                     58                     59                     60
                      A                      A                      A
 Frequencies --   1357.8125              1382.8338              1405.6252
 Red. masses --      1.2038                 1.3031                 1.4265
 Frc consts  --      1.3076                 1.4681                 1.6606
 IR Inten    --      9.6214                13.2201                11.4418

                     61                     62                     63
                      A                      A                      A
 Frequencies --   1412.1978              1434.3968              1453.5011
 Red. masses --      1.3288                 1.4745                 1.4875
 Frc consts  --      1.5613                 1.7875                 1.8516
 IR Inten    --     30.3844                22.0965                34.6766

                     64                     65                     66
                      A                      A                      A
 Frequencies --   1496.1772              1497.1290              1499.6329
 Red. masses --      1.1315                 1.1254                 1.1291
 Frc consts  --      1.4924                 1.4862                 1.4961
 IR Inten    --      1.6443                 4.3152                 0.4337

                     67                     68                     69
                      A                      A                      A
 Frequencies --   1500.2980              1510.3369              1512.2908
 Red. masses --      1.1372                 1.0466                 1.0641
 Frc consts  --      1.5081                 1.4066                 1.4339
 IR Inten    --      1.9587                 8.9935                10.1463

                     70                     71                     72
                      A                      A                      A
 Frequencies --   1515.6978              1519.7687              1522.6349
 Red. masses --      1.0571                 1.0566                 1.0637
 Frc consts  --      1.4309                 1.4379                 1.4529
 IR Inten    --     20.3435                 0.2965                19.0630

                     73                     74                     75
                      A                      A                      A
 Frequencies --   1524.7695              1528.3766              1528.8437
 Red. masses --      1.0478                 1.0670                 1.0649
 Frc consts  --      1.4353                 1.4685                 1.4665
 IR Inten    --     21.6516                 5.3630                15.8069

                     76                     77                     78
                      A                      A                      A
 Frequencies --   1540.8782              1662.2356              3000.1223
 Red. masses --      1.1051                 7.0223                 1.0541
 Frc consts  --      1.5459                11.4318                 5.5899
 IR Inten    --      3.0155               152.3654                41.5245

                     79                     80                     81
                      A                      A                      A
 Frequencies --   3018.2918              3031.1483              3035.2396
 Red. masses --      1.0363                 1.0460                 1.0945
 Frc consts  --      5.5625                 5.6622                 5.9412
 IR Inten    --     65.6978                43.5216                32.8184

                     82                     83                     84
                      A                      A                      A
 Frequencies --   3038.5904              3043.0215              3052.5741
 Red. masses --      1.0412                 1.0741                 1.0330
 Frc consts  --      5.6641                 5.8600                 5.6713
 IR Inten    --     30.8970                66.4224                39.9509

                     85                     86                     87
                      A                      A                      A
 Frequencies --   3072.1133              3077.9749              3092.7025
 Red. masses --      1.1066                 1.0853                 1.1068
 Frc consts  --      6.1533                 6.0578                 6.2375
 IR Inten    --     56.6964                22.5694                60.8826

                     88                     89                     90
                      A                      A                      A
 Frequencies --   3097.8348              3102.1451              3126.3354
 Red. masses --      1.0867                 1.1071                 1.1067
 Frc consts  --      6.1444                 6.2774                 6.3732
 IR Inten    --     26.5834                38.4088                32.3771

                     91                     92                     93
                      A                      A                      A
 Frequencies --   3159.1262              3168.5813              3170.7790
 Red. masses --      1.0993                 1.1007                 1.1015
 Frc consts  --      6.4642                 6.5110                 6.5249
 IR Inten    --     28.9573                25.2160                17.8258

                     94                     95                     96
                      A                      A                      A
 Frequencies --   3179.4521              3181.6249              3216.3914
 Red. masses --      1.1034                 1.0866                 1.0956
 Frc consts  --      6.5718                 6.4804                 6.6780
 IR Inten    --     14.2107                 2.1414                 1.2923

 - Thermochemistry -
 -------------------
 Temperature   298.150 Kelvin.  Pressure   1.00000 Atm.
 Atom     1 has atomic number  6 and mass  12.00000

 Molecular mass:   219.12325 amu.
 Principal axes and moments of inertia in atomic units:
                           1         2         3
     Eigenvalues --  2565.031084452.296174615.09730
           X            0.99995  -0.00587   0.00852
           Y            0.00637   0.99817  -0.06008
           Z           -0.00816   0.06013   0.99816
 This molecule is an asymmetric top.
 Rotational symmetry number  1.
 Warning -- assumption of classical behavior for rotation
           may cause significant error
 Rotational temperatures (Kelvin)      0.03377     0.01945     0.01877
 Rotational constants (GHZ):           0.70359     0.40535     0.39105
 Zero-point vibrational energy     774008.9 (Joules/Mol)
                                  184.99258 (Kcal/Mol)
 Warning -- explicit consideration of  26 degrees of freedom as
           vibrations may cause significant error
 Vibrational temperatures:     59.58    82.11    97.99   127.39   131.93
          (Kelvin)            139.02   163.76   201.67   222.83   245.91
                              263.38   291.95   308.43   341.14   359.88
                              375.95   414.57   450.56   521.87   529.62
                              566.79   626.31   654.84   709.00   784.99
                              838.60   910.75  1024.59  1238.69  1271.74
                             1325.61  1380.42  1385.81  1409.21  1467.29
                             1479.58  1517.83  1548.39  1613.23  1625.31
                             1632.44  1647.22  1655.68  1683.61  1700.77
                             1705.31  1710.37  1715.54  1751.36  1759.42
                             1765.48  1779.25  1816.14  1848.12  1856.11
                             1932.11  1940.68  1953.59  1989.59  2022.38
                             2031.84  2063.78  2091.26  2152.67  2154.03
                             2157.64  2158.59  2173.04  2175.85  2180.75
                             2186.61  2190.73  2193.80  2198.99  2199.67
                             2216.98  2391.59  4316.51  4342.65  4361.15
                             4367.03  4371.85  4378.23  4391.97  4420.09
                             4428.52  4449.71  4457.09  4463.29  4498.10
                             4545.28  4558.88  4562.04  4574.52  4577.65
                             4627.67

 Zero-point correction=                           0.294804 (Hartree/Particle)
 Thermal correction to Energy=                    0.312173
 Thermal correction to Enthalpy=                  0.313117
 Thermal correction to Gibbs Free Energy=         0.249462
 Sum of electronic and zero-point Energies=           -768.032543
 Sum of electronic and thermal Energies=              -768.015174
 Sum of electronic and thermal Enthalpies=            -768.014230
 Sum of electronic and thermal Free Energies=         -768.077885

                     E (Thermal)             CV                S
                      KCal/Mol        Cal/Mol-Kelvin    Cal/Mol-Kelvin
 Total                  195.891             61.619            133.974
 Electronic               0.000              0.000              0.000
 Translational            0.889              2.981             42.056
 Rotational               0.889              2.981             32.333
 Vibrational            194.114             55.658             59.585
 Vibration     1          0.594              1.981              5.191
 Vibration     2          0.596              1.975              4.556
 Vibration     3          0.598              1.969              4.207
 Vibration     4          0.601              1.957              3.692
 Vibration     5          0.602              1.955              3.624
 Vibration     6          0.603              1.952              3.521
 Vibration     7          0.607              1.938              3.203
 Vibration     8          0.615              1.913              2.802
 Vibration     9          0.620              1.897              2.611
 Vibration    10          0.626              1.878              2.425
 Vibration    11          0.631              1.863              2.297
 Vibration    12          0.639              1.836              2.106
 Vibration    13          0.644              1.819              2.006
 Vibration    14          0.656              1.784              1.824
 Vibration    15          0.663              1.763              1.730
 Vibration    16          0.669              1.744              1.653
 Vibration    17          0.685              1.696              1.485
 Vibration    18          0.701              1.649              1.346
 Vibration    19          0.737              1.549              1.110
 Vibration    20          0.741              1.538              1.088
 Vibration    21          0.761              1.483              0.985
 Vibration    22          0.796              1.393              0.841
 Vibration    23          0.813              1.350              0.780
 Vibration    24          0.848              1.266              0.676
 Vibration    25          0.901              1.149              0.553
 Vibration    26          0.940              1.068              0.480

 Optimization completed.
    -- Stationary point found.
 Normal termination of Gaussian 16 at Fri May 24 09:16:16 2019.
