 Gaussian 16, Revision A.03,
 Gaussian 16:  ES64L-G16RevA.03 25-Dec-2016

 -------------------------------------------------------------------
 #p b3lyp 6-31g* opt freq=noraman scrf=(pcm,solvent=tetrahydrofuran)
 -------------------------------------------------------------------

 -----
 title
 -----
 Symbolic Z-matrix:
 Charge =  1 Multiplicity = 1

 SCF Done:  E(RB3LYP) =  -768.332380407     A.U. after   14 cycles
 Optimization completed.
    -- Stationary point found.
 Normal termination of Gaussian 16 at Fri May 24 08:42:16 2019.

 --------------------------------------------------------------------
 #P Geom=AllCheck Guess=TCheck SCRF=Check GenChk RB3LYP/6-31G(d) Freq
 --------------------------------------------------------------------

 Structure from the checkpoint file:  "/scratch/Gau-81528.chk"
 -----
 title
 -----
 Charge =  1 Multiplicity = 1

                         Standard orientation:
 ---------------------------------------------------------------------
 Center     Atomic      Atomic             Coordinates (Angstroms)
 Number     Number       Type             X           Y           Z
 ---------------------------------------------------------------------
      1          6           0       -1.193264    0.432557   -0.249233
      2          6           0       -1.434310   -1.014955    0.243338
      3          6           0       -0.295759   -1.908361   -0.130376
      4          6           0        1.301227   -0.076914   -0.402394
      5          6           0        0.226016    0.870720    0.151986
      6          1           0       -0.451433   -2.983355   -0.234986
      7          1           0       -1.481085   -0.987224    1.346580
      8          1           0       -1.278649    0.452470   -1.344041
      9          1           0        1.459790    0.113476   -1.465019
     10          1           0        0.287488    0.907350    1.249156
     11          8           0        0.866175   -1.527405   -0.411621
     12          8           0       -2.600030   -1.556665   -0.324035
     13          8           0       -2.114970    1.304644    0.349779
     14          8           0        0.556012    2.120594   -0.412319
     15          6           0        2.620497   -0.042114    0.342828
     16          1           0        2.489347   -0.425155    1.367778
     17          1           0        2.911809    1.017654    0.415653
     18          8           0        3.557735   -0.797197   -0.381294
     19          6           0       -3.396975   -2.350678    0.567922
     20          1           0       -3.704183   -1.757368    1.437289
     21          1           0       -4.273872   -2.655535   -0.003641
     22          1           0       -2.856067   -3.243167    0.905768
     23          6           0       -3.254409    1.633761   -0.453905
     24          1           0       -3.850532    0.744405   -0.681002
     25          1           0       -3.848032    2.333543    0.136830
     26          1           0       -2.945176    2.117880   -1.388818
     27          6           0        0.388684    3.249382    0.454607
     28          1           0       -0.656531    3.366596    0.752200
     29          1           0        1.019073    3.154163    1.348344
     30          1           0        0.711111    4.118039   -0.122264
     31          6           0        4.839945   -0.816015    0.235532
     32          1           0        5.257768    0.197193    0.317734
     33          1           0        4.793867   -1.264394    1.238229
     34          1           0        5.486008   -1.422623   -0.401699
 ---------------------------------------------------------------------

 SCF Done:  E(RB3LYP) =  -768.332380407     A.U. after    1 cycles

 The electronic state is 1-A.
 Alpha  occ. eigenvalues --  -19.32911 -19.21385 -19.19241 -19.19083 -19.18189
 Alpha  occ. eigenvalues --  -10.39578 -10.32013 -10.31670 -10.29700 -10.29406
 Alpha  occ. eigenvalues --  -10.27806 -10.26263 -10.24811 -10.24785 -10.24569
 Alpha  occ. eigenvalues --   -1.21529  -1.09911  -1.08137  -1.06678  -1.06274
 Alpha  occ. eigenvalues --   -0.87315  -0.85861  -0.77334  -0.74915  -0.73391
 Alpha  occ. eigenvalues --   -0.71228  -0.68632  -0.67771  -0.65298  -0.63177
 Alpha  occ. eigenvalues --   -0.60332  -0.58849  -0.55615  -0.54829  -0.53609
 Alpha  occ. eigenvalues --   -0.52002  -0.51562  -0.50850  -0.50075  -0.49173
 Alpha  occ. eigenvalues --   -0.48879  -0.47879  -0.46118  -0.45788  -0.45423
 Alpha  occ. eigenvalues --   -0.44033  -0.42680  -0.42026  -0.41290  -0.40492
 Alpha  occ. eigenvalues --   -0.39672  -0.37488  -0.35874  -0.35593  -0.35296
 Alpha  occ. eigenvalues --   -0.32502  -0.30710  -0.28882  -0.28090
 Alpha virt. eigenvalues --   -0.15098   0.00088   0.04795   0.05535   0.06493
 Alpha virt. eigenvalues --    0.07093   0.07240   0.08883   0.10001   0.10736
 Alpha virt. eigenvalues --    0.11296   0.11508   0.12012   0.12556   0.13197

 Mulliken charges:
               1
     1  C    0.130516
     2  C    0.034696
     3  C    0.300805
     4  C    0.064045
     5  C    0.085365
     6  H    0.275654
     7  H    0.234019
     8  H    0.182094
     9  H    0.244754
    10  H    0.178615
    11  O   -0.306590
    12  O   -0.469824
    13  O   -0.489352
    14  O   -0.487791
    15  C   -0.021616
    16  H    0.165133
    17  H    0.184023
    18  O   -0.479863
    19  C   -0.234711
    20  H    0.181120
    21  H    0.198225
    22  H    0.171597
    23  C   -0.225607
    24  H    0.170422
    25  H    0.180529
    26  H    0.165292
    27  C   -0.225000
    28  H    0.175808
    29  H    0.159713
    30  H    0.181113
    31  C   -0.212147
    32  H    0.156332
    33  H    0.153692
    34  H    0.178940
 Sum of Mulliken charges =   1.00000

 Dipole moment (field-independent basis, Debye):
    X=             -1.4119    Y=             -3.6936    Z=              2.5972  Tot=              4.7309
 Quadrupole moment (field-independent basis, Debye-Ang):
   XX=            -58.1964   YY=            -65.6306   ZZ=            -84.7924
   XY=              6.7156   XZ=              3.5386   YZ=             -2.2780

  Exact polarizability: 175.189   3.774 153.143  -2.407  -0.374 112.503
 Approx polarizability: 181.177   1.757 166.651  -4.579   1.304 143.569

                      1                      2                      3
                      A                      A                      A
 Frequencies --     22.6681                53.8801                64.1495
 Red. masses --      4.0903                 3.7082                 2.5898
 Frc consts  --      0.0012                 0.0063                 0.0063
 IR Inten    --      1.0788                 0.2072                 2.9301

                      4                      5                      6
                      A                      A                      A
 Frequencies --     77.6008                81.5774                89.6966
 Red. masses --      2.7867                 2.5453                 2.3800
 Frc consts  --      0.0099                 0.0100                 0.0113
 IR Inten    --      1.2474                 3.8635                11.0824

                      7                      8                      9
                      A                      A                      A
 Frequencies --    101.6343               136.3020               143.0295
 Red. masses --      2.0884                 2.0894                 1.2696
 Frc consts  --      0.0127                 0.0229                 0.0153
 IR Inten    --      2.0195                 4.7822                 0.1210

                     10                     11                     12
                      A                      A                      A
 Frequencies --    151.9837               165.7872               178.8306
 Red. masses --      1.4299                 1.6401                 2.7849
 Frc consts  --      0.0195                 0.0266                 0.0525
 IR Inten    --      1.4948                 8.7327                 0.7070

                     13                     14                     15
                      A                      A                      A
 Frequencies --    211.3656               236.9591               246.2793
 Red. masses --      1.6085                 1.8399                 3.8697
 Frc consts  --      0.0423                 0.0609                 0.1383
 IR Inten    --      2.4688                12.8694                12.7495

                     16                     17                     18
                      A                      A                      A
 Frequencies --    280.9888               285.7925               300.9494
 Red. masses --      4.4766                 4.9939                 3.6499
 Frc consts  --      0.2082                 0.2403                 0.1948
 IR Inten    --     12.2339                 4.2836                 5.7666

                     19                     20                     21
                      A                      A                      A
 Frequencies --    337.7676               355.6743               384.5222
 Red. masses --      3.8256                 4.5705                 3.6271
 Frc consts  --      0.2572                 0.3407                 0.3160
 IR Inten    --      0.4719                 0.2739                 0.9767

                     22                     23                     24
                      A                      A                      A
 Frequencies --    418.8295               456.4929               519.9846
 Red. masses --      5.1907                 3.4057                 3.5514
 Frc consts  --      0.5365                 0.4181                 0.5658
 IR Inten    --      4.9368                19.1067                31.6050

                     25                     26                     27
                      A                      A                      A
 Frequencies --    550.4390               583.6804               593.8031
 Red. masses --      3.3707                 3.3058                 3.3354
 Frc consts  --      0.6017                 0.6636                 0.6929
 IR Inten    --     19.1827                12.2730                 8.5348

                     28                     29                     30
                      A                      A                      A
 Frequencies --    718.1180               727.2856               852.8137
 Red. masses --      3.7769                 4.1896                 1.9054
 Frc consts  --      1.1476                 1.3057                 0.8165
 IR Inten    --     79.8577                46.0538                15.8849

                     31                     32                     33
                      A                      A                      A
 Frequencies --    945.9109               973.9352               984.0771
 Red. masses --      4.4654                 3.9677                 3.5069
 Frc consts  --      2.3540                 2.2174                 2.0009
 IR Inten    --      8.7512                 3.2337                46.5211

                     34                     35                     36
                      A                      A                      A
 Frequencies --    986.6024              1038.0411              1063.0507
 Red. masses --      4.0917                 3.6466                 2.4139
 Frc consts  --      2.3466                 2.3151                 1.6073
 IR Inten    --     46.7242                53.6234                21.2436

                     37                     38                     39
                      A                      A                      A
 Frequencies --   1084.7763              1088.1502              1110.2128
 Red. masses --      3.5373                 3.2456                 2.9892
 Frc consts  --      2.4525                 2.2643                 2.1708
 IR Inten    --    133.9100                80.2344                45.9701

                     40                     41                     42
                      A                      A                      A
 Frequencies --   1138.0887              1145.6326              1158.5775
 Red. masses --      3.8048                 2.5092                 3.1259
 Frc consts  --      2.9036                 1.9403                 2.4721
 IR Inten    --    132.3801                75.5999                51.0510

                     43                     44                     45
                      A                      A                      A
 Frequencies --   1164.6319              1175.9680              1183.0714
 Red. masses --      3.5931                 2.6715                 1.2725
 Frc consts  --      2.8714                 2.1767                 1.0494
 IR Inten    --    392.3422                55.2131                 4.2937

                     46                     47                     48
                      A                      A                      A
 Frequencies --   1184.7457              1186.8702              1191.2471
 Red. masses --      1.2899                 1.4504                 1.3566
 Frc consts  --      1.0667                 1.2037                 1.1342
 IR Inten    --     14.7007                28.1340                 8.0851

                     49                     50                     51
                      A                      A                      A
 Frequencies --   1210.7977              1218.2584              1225.6369
 Red. masses --      1.3950                 1.4962                 1.6541
 Frc consts  --      1.2049                 1.3083                 1.4640
 IR Inten    --     49.8209                61.7965                 7.0936

                     52                     53                     54
                      A                      A                      A
 Frequencies --   1240.9232              1255.3801              1275.4219
 Red. masses --      1.7569                 1.6013                 1.4066
 Frc consts  --      1.5940                 1.4869                 1.3481
 IR Inten    --     13.2849                11.6279                15.6484

                     55                     56                     57
                      A                      A                      A
 Frequencies --   1287.9041              1317.1531              1335.4380
 Red. masses --      1.2303                 1.3123                 1.1961
 Frc consts  --      1.2024                 1.3414                 1.2568
 IR Inten    --     32.1061                 2.4224                56.3317

                     58                     59                     60
                      A                      A                      A
 Frequencies --   1351.0031              1391.1827              1411.6904
 Red. masses --      1.2330                 1.3294                 1.3090
 Frc consts  --      1.3260                 1.5159                 1.5370
 IR Inten    --     16.2035                 3.9377                 2.8162

                     61                     62                     63
                      A                      A                      A
 Frequencies --   1418.1009              1442.1355              1450.5326
 Red. masses --      1.3375                 1.2413                 1.4448
 Frc consts  --      1.5848                 1.5210                 1.7911
 IR Inten    --     25.9777                39.7941                53.1361

                     64                     65                     66
                      A                      A                      A
 Frequencies --   1493.9318              1496.1890              1499.1524
 Red. masses --      1.1197                 1.1503                 1.1487
 Frc consts  --      1.4724                 1.5172                 1.5211
 IR Inten    --      5.3567                 0.7758                 3.8186

                     67                     68                     69
                      A                      A                      A
 Frequencies --   1501.1419              1507.1908              1508.5032
 Red. masses --      1.1525                 1.0507                 1.0613
 Frc consts  --      1.5302                 1.4063                 1.4230
 IR Inten    --      1.4292                 7.1089                 3.2499

                     70                     71                     72
                      A                      A                      A
 Frequencies --   1509.3848              1515.3173              1517.4134
 Red. masses --      1.0464                 1.0602                 1.0606
 Frc consts  --      1.4046                 1.4343                 1.4388
 IR Inten    --      8.8697                 8.7334                15.7649

                     73                     74                     75
                      A                      A                      A
 Frequencies --   1523.0679              1530.9993              1534.9939
 Red. masses --      1.0613                 1.0553                 1.0553
 Frc consts  --      1.4505                 1.4574                 1.4650
 IR Inten    --     18.1883                12.0102                10.8236

                     76                     77                     78
                      A                      A                      A
 Frequencies --   1543.0657              1643.5048              2983.8460
 Red. masses --      1.1012                 6.9788                 1.0796
 Frc consts  --      1.5448                11.1064                 5.6631
 IR Inten    --      3.4445               327.1279                12.3471

                     79                     80                     81
                      A                      A                      A
 Frequencies --   2998.0248              3018.8480              3030.7247
 Red. masses --      1.0584                 1.0361                 1.0828
 Frc consts  --      5.6051                 5.5633                 5.8601
 IR Inten    --     39.8000                67.5873                18.3312

                     82                     83                     84
                      A                      A                      A
 Frequencies --   3038.6966              3042.1319              3042.2347
 Red. masses --      1.0964                 1.0346                 1.0432
 Frc consts  --      5.9649                 5.6415                 5.6887
 IR Inten    --     54.4331                54.6258                52.9950

                     85                     86                     87
                      A                      A                      A
 Frequencies --   3043.2878              3054.7858              3072.8204
 Red. masses --      1.0404                 1.0824                 1.1065
 Frc consts  --      5.6772                 5.9514                 6.1558
 IR Inten    --     22.6601                33.5860                56.7357

                     88                     89                     90
                      A                      A                      A
 Frequencies --   3109.3489              3119.1037              3127.4801
 Red. masses --      1.1077                 1.1020                 1.0954
 Frc consts  --      6.3095                 6.3169                 6.3126
 IR Inten    --     37.3616                38.8292                37.6160

                     91                     92                     93
                      A                      A                      A
 Frequencies --   3153.6502              3159.7048              3166.7129
 Red. masses --      1.0868                 1.0994                 1.1042
 Frc consts  --      6.3684                 6.4668                 6.5240
 IR Inten    --      0.6309                28.7140                24.1611

                     94                     95                     96
                      A                      A                      A
 Frequencies --   3170.3979              3181.0520              3202.2519
 Red. masses --      1.1064                 1.1019                 1.0930
 Frc consts  --      6.5520                 6.5697                 6.6035
 IR Inten    --     20.7959                16.6937                 0.5650

 - Thermochemistry -
 -------------------
 Temperature   298.150 Kelvin.  Pressure   1.00000 Atm.
 Atom     1 has atomic number  6 and mass  12.00000

 Molecular mass:   219.12325 amu.
 Principal axes and moments of inertia in atomic units:
                           1         2         3
     Eigenvalues --  2202.489454722.169866602.80136
           X            0.99996   0.00665   0.00571
           Y           -0.00661   0.99996  -0.00668
           Z           -0.00575   0.00664   0.99996
 This molecule is an asymmetric top.
 Rotational symmetry number  1.
 Warning -- assumption of classical behavior for rotation
           may cause significant error
 Rotational temperatures (Kelvin)      0.03933     0.01834     0.01312
 Rotational constants (GHZ):           0.81941     0.38218     0.27333
 Zero-point vibrational energy     771609.3 (Joules/Mol)
                                  184.41904 (Kcal/Mol)
 Warning -- explicit consideration of  27 degrees of freedom as
           vibrations may cause significant error
 Vibrational temperatures:     32.61    77.52    92.30   111.65   117.37
          (Kelvin)            129.05   146.23   196.11   205.79   218.67
                              238.53   257.30   304.11   340.93   354.34
                              404.28   411.19   433.00   485.97   511.74
                              553.24   602.60   656.79   748.14   791.96
                              839.79   854.35  1033.21  1046.40  1227.01
                             1360.95  1401.28  1415.87  1419.50  1493.51
                             1529.49  1560.75  1565.61  1597.35  1637.46
                             1648.31  1666.93  1675.65  1691.96  1702.18
                             1704.58  1707.64  1713.94  1742.07  1752.80
                             1763.42  1785.41  1806.21  1835.05  1853.01
                             1895.09  1921.40  1943.79  2001.60  2031.11
                             2040.33  2074.91  2086.99  2149.43  2152.68
                             2156.95  2159.81  2168.51  2170.40  2171.67
                             2180.20  2183.22  2191.36  2202.77  2208.51
                             2220.13  2364.64  4293.09  4313.49  4343.45
                             4360.54  4372.01  4376.95  4377.10  4378.61
                             4395.16  4421.10  4473.66  4487.69  4499.75
                             4537.40  4546.11  4556.19  4561.50  4576.82
                             4607.33

 Zero-point correction=                           0.293890 (Hartree/Particle)
 Thermal correction to Energy=                    0.311604
 Thermal correction to Enthalpy=                  0.312549
 Thermal correction to Gibbs Free Energy=         0.247134
 Sum of electronic and zero-point Energies=           -768.038490
 Sum of electronic and thermal Energies=              -768.020776
 Sum of electronic and thermal Enthalpies=            -768.019832
 Sum of electronic and thermal Free Energies=         -768.085246

                     E (Thermal)             CV                S
                      KCal/Mol        Cal/Mol-Kelvin    Cal/Mol-Kelvin
 Total                  195.535             61.982            137.676
 Electronic               0.000              0.000              0.000
 Translational            0.889              2.981             42.056
 Rotational               0.889              2.981             32.596
 Vibrational            193.757             56.020             63.024
 Vibration     1          0.593              1.985              6.386
 Vibration     2          0.596              1.976              4.670
 Vibration     3          0.597              1.971              4.325
 Vibration     4          0.599              1.964              3.951
 Vibration     5          0.600              1.962              3.853
 Vibration     6          0.602              1.956              3.667
 Vibration     7          0.604              1.948              3.423
 Vibration     8          0.614              1.917              2.855
 Vibration     9          0.616              1.910              2.763
 Vibration    10          0.619              1.900              2.647
 Vibration    11          0.624              1.885              2.483
 Vibration    12          0.629              1.868              2.341
 Vibration    13          0.643              1.824              2.032
 Vibration    14          0.656              1.784              1.826
 Vibration    15          0.661              1.769              1.757
 Vibration    16          0.681              1.709              1.528
 Vibration    17          0.684              1.700              1.499
 Vibration    18          0.693              1.672              1.412
 Vibration    19          0.718              1.600              1.223
 Vibration    20          0.731              1.564              1.141
 Vibration    21          0.753              1.503              1.021
 Vibration    22          0.782              1.429              0.896
 Vibration    23          0.815              1.347              0.776
 Vibration    24          0.875              1.206              0.610
 Vibration    25          0.906              1.139              0.543
 Vibration    26          0.941              1.067              0.479
 Vibration    27          0.951              1.045              0.460

 Optimization completed.
    -- Stationary point found.
 Normal termination of Gaussian 16 at Fri May 24 09:01:56 2019.
