 Gaussian 16, Revision A.03,
 Gaussian 16:  ES64L-G16RevA.03 25-Dec-2016

 -------------------------------------------------------------------
 #p b3lyp 6-31g* opt freq=noraman scrf=(pcm,solvent=tetrahydrofuran)
 -------------------------------------------------------------------

 -----
 title
 -----
 Symbolic Z-matrix:
 Charge =  1 Multiplicity = 1

 SCF Done:  E(RB3LYP) =  -768.321890744     A.U. after   14 cycles
 Optimization completed.
    -- Stationary point found.
 Normal termination of Gaussian 16 at Fri May 24 08:33:15 2019.

 --------------------------------------------------------------------
 #P Geom=AllCheck Guess=TCheck SCRF=Check GenChk RB3LYP/6-31G(d) Freq
 --------------------------------------------------------------------

 Structure from the checkpoint file:  "/scratch/Gau-144248.chk"
 -----
 title
 -----
 Charge =  1 Multiplicity = 1

                         Standard orientation:
 ---------------------------------------------------------------------
 Center     Atomic      Atomic             Coordinates (Angstroms)
 Number     Number       Type             X           Y           Z
 ---------------------------------------------------------------------
      1          6           0        1.346324    0.292390   -0.124985
      2          6           0        1.466405   -1.186664   -0.559250
      3          6           0        0.269936   -2.007444   -0.199664
      4          6           0       -1.186900   -0.090441    0.170643
      5          6           0       -0.084556    0.780786   -0.464514
      6          1           0        0.349673   -3.096508   -0.191363
      7          1           0        1.429481   -1.175688   -1.665991
      8          1           0        1.540561    0.381727    0.952546
      9          1           0       -1.246376    0.026239    1.253971
     10          1           0       -0.181606    0.725738   -1.554952
     11          8           0       -0.876032   -1.567301    0.052859
     12          8           0        2.644203   -1.867990   -0.241417
     13          8           0        2.315061    0.973765   -0.878460
     14          8           0       -0.311608    2.144218   -0.169764
     15          6           0       -2.560308    0.093560   -0.441997
     16          1           0       -2.566302   -0.288146   -1.475651
     17          1           0       -2.748754    1.177564   -0.488245
     18          8           0       -3.493314   -0.572619    0.370644
     19          6           0        2.963420   -1.957043    1.154819
     20          1           0        2.117109   -2.339980    1.742761
     21          1           0        3.791497   -2.662933    1.222507
     22          1           0        3.279896   -0.989886    1.558679
     23          6           0        2.866533    2.155554   -0.292720
     24          1           0        3.709311    2.438004   -0.926386
     25          1           0        2.138303    2.971553   -0.271443
     26          1           0        3.233787    1.957955    0.723055
     27          6           0       -0.335559    2.555976    1.204266
     28          1           0       -0.331938    3.646497    1.177728
     29          1           0       -1.244500    2.221404    1.717843
     30          1           0        0.543668    2.213901    1.760665
     31          6           0       -4.828301   -0.442702   -0.105685
     32          1           0       -5.137486    0.611426   -0.140839
     33          1           0       -4.939134   -0.880079   -1.107859
     34          1           0       -5.465623   -0.983185    0.596597
 ---------------------------------------------------------------------

 SCF Done:  E(RB3LYP) =  -768.321890744     A.U. after    1 cycles

 The electronic state is 1-A.
 Alpha  occ. eigenvalues --  -19.33478 -19.20975 -19.20080 -19.19065 -19.18307
 Alpha  occ. eigenvalues --  -10.40110 -10.32401 -10.32148 -10.30054 -10.29852
 Alpha  occ. eigenvalues --  -10.27897 -10.26386 -10.25841 -10.24904 -10.24625
 Alpha  occ. eigenvalues --   -1.22124  -1.09876  -1.08408  -1.06779  -1.06516
 Alpha  occ. eigenvalues --   -0.87577  -0.86101  -0.77823  -0.75583  -0.73876
 Alpha  occ. eigenvalues --   -0.72354  -0.68779  -0.68163  -0.65625  -0.63115
 Alpha  occ. eigenvalues --   -0.60800  -0.58759  -0.55943  -0.55293  -0.53911
 Alpha  occ. eigenvalues --   -0.52546  -0.51967  -0.51231  -0.50171  -0.49457
 Alpha  occ. eigenvalues --   -0.48812  -0.48054  -0.46536  -0.45892  -0.45506
 Alpha  occ. eigenvalues --   -0.44482  -0.43073  -0.42259  -0.42211  -0.41474
 Alpha  occ. eigenvalues --   -0.40287  -0.37319  -0.35636  -0.35350  -0.35107
 Alpha  occ. eigenvalues --   -0.32152  -0.31711  -0.28993  -0.28342
 Alpha virt. eigenvalues --   -0.15634  -0.00502   0.04204   0.04719   0.06713
 Alpha virt. eigenvalues --    0.06958   0.07331   0.08229   0.08916   0.10989
 Alpha virt. eigenvalues --    0.11168   0.11366   0.11719   0.12071   0.12981

 Mulliken charges:
               1
     1  C    0.099524
     2  C    0.040684
     3  C    0.279745
     4  C    0.039911
     5  C    0.098586
     6  H    0.284359
     7  H    0.261611
     8  H    0.174188
     9  H    0.237626
    10  H    0.194309
    11  O   -0.298875
    12  O   -0.464246
    13  O   -0.481445
    14  O   -0.479255
    15  C   -0.019794
    16  H    0.170857
    17  H    0.186827
    18  O   -0.482792
    19  C   -0.243391
    20  H    0.161469
    21  H    0.202316
    22  H    0.181598
    23  C   -0.226787
    24  H    0.183502
    25  H    0.173413
    26  H    0.159502
    27  C   -0.246887
    28  H    0.196628
    29  H    0.171941
    30  H    0.166435
    31  C   -0.212490
    32  H    0.156444
    33  H    0.155733
    34  H    0.178752
 Sum of Mulliken charges =   1.00000

 Dipole moment (field-independent basis, Debye):
    X=             -0.4300    Y=             -2.7597    Z=              1.8747  Tot=              3.3638
 Quadrupole moment (field-independent basis, Debye-Ang):
   XX=            -67.1152   YY=            -69.5176   ZZ=            -81.5819
   XY=             -1.4151   XZ=             10.4280   YZ=              4.0603

  Exact polarizability: 164.368  -2.311 148.794  -1.394   2.366 118.000
 Approx polarizability: 172.316  -3.415 165.961  -6.349   0.608 147.993

                      1                      2                      3
                      A                      A                      A
 Frequencies --     42.8302                58.5541                66.9982
 Red. masses --      4.0764                 3.2879                 3.5809
 Frc consts  --      0.0044                 0.0066                 0.0095
 IR Inten    --      1.1017                 1.2870                 0.1416

                      4                      5                      6
                      A                      A                      A
 Frequencies --     88.1227               107.1120               112.3980
 Red. masses --      2.4673                 2.5689                 2.8383
 Frc consts  --      0.0113                 0.0174                 0.0211
 IR Inten    --     10.5158                 8.4749                 2.8611

                      7                      8                      9
                      A                      A                      A
 Frequencies --    137.7681               148.7972               167.1136
 Red. masses --      2.0560                 2.3698                 2.3081
 Frc consts  --      0.0230                 0.0309                 0.0380
 IR Inten    --      5.3525                 0.2734                 0.2956

                     10                     11                     12
                      A                      A                      A
 Frequencies --    191.6519               197.6181               220.7209
 Red. masses --      1.3125                 2.1650                 1.5827
 Frc consts  --      0.0284                 0.0498                 0.0454
 IR Inten    --      0.6002                 4.0288                 3.0195

                     13                     14                     15
                      A                      A                      A
 Frequencies --    230.6324               247.6730               257.8877
 Red. masses --      1.2949                 1.8628                 3.0038
 Frc consts  --      0.0406                 0.0673                 0.1177
 IR Inten    --      3.5749                 5.7608                 4.5592

                     16                     17                     18
                      A                      A                      A
 Frequencies --    278.0078               281.4874               316.3835
 Red. masses --      3.6878                 3.6438                 4.6722
 Frc consts  --      0.1679                 0.1701                 0.2755
 IR Inten    --     15.1358                13.9464                 2.3402

                     19                     20                     21
                      A                      A                      A
 Frequencies --    334.4195               352.0459               419.0545
 Red. masses --      3.2625                 3.6238                 5.2215
 Frc consts  --      0.2150                 0.2646                 0.5402
 IR Inten    --      2.5047                 8.0662                 6.0948

                     22                     23                     24
                      A                      A                      A
 Frequencies --    447.9623               471.3130               512.8852
 Red. masses --      4.1981                 4.2678                 3.5588
 Frc consts  --      0.4963                 0.5586                 0.5516
 IR Inten    --      6.5757                 6.0478                20.2149

                     25                     26                     27
                      A                      A                      A
 Frequencies --    551.1119               587.1480               616.4644
 Red. masses --      3.6237                 3.6582                 2.8410
 Frc consts  --      0.6485                 0.7430                 0.6361
 IR Inten    --      3.4603                16.4415                20.8868

                     28                     29                     30
                      A                      A                      A
 Frequencies --    707.9498               740.6985               859.6674
 Red. masses --      4.5038                 3.6555                 2.1883
 Frc consts  --      1.3299                 1.1816                 0.9528
 IR Inten    --     27.4647                74.1626                25.4927

                     31                     32                     33
                      A                      A                      A
 Frequencies --    915.4988               957.1641               966.7524
 Red. masses --      3.4975                 4.3367                 4.2112
 Frc consts  --      1.7271                 2.3409                 2.3189
 IR Inten    --     18.0204                96.2820                20.0124

                     34                     35                     36
                      A                      A                      A
 Frequencies --    978.3994              1010.9728              1054.8117
 Red. masses --      4.1315                 2.6315                 2.2748
 Frc consts  --      2.3302                 1.5847                 1.4912
 IR Inten    --     46.1193                18.6144                22.1724

                     37                     38                     39
                      A                      A                      A
 Frequencies --   1058.6476              1096.1373              1109.5258
 Red. masses --      3.8482                 3.5414                 2.7549
 Frc consts  --      2.5411                 2.5070                 1.9982
 IR Inten    --     36.5219                16.1979                47.7269

                     40                     41                     42
                      A                      A                      A
 Frequencies --   1144.3610              1147.8869              1162.3617
 Red. masses --      2.7269                 2.6437                 3.6464
 Frc consts  --      2.1040                 2.0524                 2.9027
 IR Inten    --     88.9237                22.4048               346.6250

                     43                     44                     45
                      A                      A                      A
 Frequencies --   1163.2208              1176.8314              1181.1693
 Red. masses --      4.3681                 2.3437                 1.2780
 Frc consts  --      3.4823                 1.9124                 1.0505
 IR Inten    --     83.6030                79.3984                 8.6791

                     46                     47                     48
                      A                      A                      A
 Frequencies --   1186.4073              1191.0491              1193.7605
 Red. masses --      1.3765                 1.3001                 1.5059
 Frc consts  --      1.1415                 1.0866                 1.2644
 IR Inten    --     32.0080                 2.5804                25.3835

                     49                     50                     51
                      A                      A                      A
 Frequencies --   1225.5042              1229.4441              1232.3841
 Red. masses --      1.4776                 1.5534                 1.7876
 Frc consts  --      1.3075                 1.3834                 1.5996
 IR Inten    --     62.0542                58.2540                32.6611

                     52                     53                     54
                      A                      A                      A
 Frequencies --   1239.9531              1259.8350              1278.1309
 Red. masses --      1.7236                 1.4166                 1.2896
 Frc consts  --      1.5614                 1.3247                 1.2413
 IR Inten    --     13.0137                23.1285                17.2612

                     55                     56                     57
                      A                      A                      A
 Frequencies --   1293.4875              1335.5100              1350.9039
 Red. masses --      1.3662                 1.3376                 1.2339
 Frc consts  --      1.3468                 1.4057                 1.3267
 IR Inten    --     29.3402                29.7833                14.9945

                     58                     59                     60
                      A                      A                      A
 Frequencies --   1365.8178              1379.1642              1407.7500
 Red. masses --      1.2265                 1.3004                 1.3328
 Frc consts  --      1.3480                 1.4573                 1.5563
 IR Inten    --     15.5228                17.0477                23.9625

                     61                     62                     63
                      A                      A                      A
 Frequencies --   1414.1459              1448.5763              1463.4492
 Red. masses --      1.2989                 1.4739                 1.1641
 Frc consts  --      1.5304                 1.8223                 1.4689
 IR Inten    --     20.9667                40.8450                11.6207

                     64                     65                     66
                      A                      A                      A
 Frequencies --   1500.9048              1501.6616              1504.7926
 Red. masses --      1.1532                 1.1570                 1.1031
 Frc consts  --      1.5306                 1.5372                 1.4718
 IR Inten    --      1.9732                 1.1649                 0.0856

                     67                     68                     69
                      A                      A                      A
 Frequencies --   1507.0327              1509.9185              1512.0362
 Red. masses --      1.1131                 1.0459                 1.0599
 Frc consts  --      1.4895                 1.4049                 1.4277
 IR Inten    --      1.5472                 9.1699                10.1435

                     70                     71                     72
                      A                      A                      A
 Frequencies --   1514.8310              1523.1646              1529.9769
 Red. masses --      1.0670                 1.0617                 1.0713
 Frc consts  --      1.4426                 1.4513                 1.4775
 IR Inten    --     13.4887                15.7516                16.9551

                     73                     74                     75
                      A                      A                      A
 Frequencies --   1533.0058              1533.3059              1539.5088
 Red. masses --      1.0554                 1.0487                 1.0592
 Frc consts  --      1.4613                 1.4527                 1.4791
 IR Inten    --     15.7688                27.6429                 5.3369

                     76                     77                     78
                      A                      A                      A
 Frequencies --   1542.3387              1657.2250              2966.3763
 Red. masses --      1.0895                 7.1400                 1.0782
 Frc consts  --      1.5270                11.5534                 5.5897
 IR Inten    --      5.2154               226.1014                31.7585

                     79                     80                     81
                      A                      A                      A
 Frequencies --   3004.4775              3019.7523              3031.1611
 Red. masses --      1.0554                 1.0368                 1.0425
 Frc consts  --      5.6132                 5.5702                 5.6437
 IR Inten    --     33.0195                65.6524                26.4353

                     82                     83                     84
                      A                      A                      A
 Frequencies --   3039.6659              3041.7990              3047.0551
 Red. masses --      1.0394                 1.1042                 1.0673
 Frc consts  --      5.6583                 6.0195                 5.8384
 IR Inten    --     52.3291                43.5502                11.0721

                     85                     86                     87
                      A                      A                      A
 Frequencies --   3055.0757              3073.7235              3074.8590
 Red. masses --      1.0470                 1.1063                 1.0871
 Frc consts  --      5.7579                 6.1580                 6.0558
 IR Inten    --     52.1763                62.1636                14.8695

                     88                     89                     90
                      A                      A                      A
 Frequencies --   3112.0024              3118.2429              3120.2826
 Red. masses --      1.0973                 1.1057                 1.0985
 Frc consts  --      6.2613                 6.3342                 6.3015
 IR Inten    --     40.3891                59.6484                39.0076

                     91                     92                     93
                      A                      A                      A
 Frequencies --   3151.1877              3159.2664              3163.4426
 Red. masses --      1.0858                 1.0996                 1.1043
 Frc consts  --      6.3525                 6.4662                 6.5112
 IR Inten    --      1.5588                28.3657                23.9776

                     94                     95                     96
                      A                      A                      A
 Frequencies --   3169.7709              3180.3671              3187.2328
 Red. masses --      1.1020                 1.1014                 1.0945
 Frc consts  --      6.5238                 6.5640                 6.5509
 IR Inten    --     16.1370                15.7854                 2.1066

 - Thermochemistry -
 -------------------
 Temperature   298.150 Kelvin.  Pressure   1.00000 Atm.
 Atom     1 has atomic number  6 and mass  12.00000

 Molecular mass:   219.12325 amu.
 Principal axes and moments of inertia in atomic units:
                           1         2         3
     Eigenvalues --  2156.692784593.104776123.53536
           X            0.99989   0.00323   0.01425
           Y           -0.00335   0.99996   0.00837
           Z           -0.01422  -0.00841   0.99986
 This molecule is an asymmetric top.
 Rotational symmetry number  1.
 Warning -- assumption of classical behavior for rotation
           may cause significant error
 Rotational temperatures (Kelvin)      0.04016     0.01886     0.01414
 Rotational constants (GHZ):           0.83681     0.39292     0.29472
 Zero-point vibrational energy     774563.7 (Joules/Mol)
                                  185.12516 (Kcal/Mol)
 Warning -- explicit consideration of  27 degrees of freedom as
           vibrations may cause significant error
 Vibrational temperatures:     61.62    84.25    96.40   126.79   154.11
          (Kelvin)            161.72   198.22   214.09   240.44   275.74
                              284.33   317.57   331.83   356.35   371.04
                              399.99   405.00   455.21   481.16   506.52
                              602.93   644.52   678.11   737.93   792.93
                              844.77   886.95  1018.58  1065.70  1236.87
                             1317.20  1377.15  1390.94  1407.70  1454.56
                             1517.64  1523.16  1577.10  1596.36  1646.48
                             1651.55  1672.38  1673.62  1693.20  1699.44
                             1706.98  1713.65  1717.56  1763.23  1768.90
                             1773.13  1784.02  1812.62  1838.95  1861.04
                             1921.50  1943.65  1965.11  1984.31  2025.44
                             2034.64  2084.18  2105.58  2159.47  2160.56
                             2165.06  2168.28  2172.44  2175.48  2179.50
                             2191.49  2201.30  2205.65  2206.09  2215.01
                             2219.08  2384.38  4267.95  4322.77  4344.75
                             4361.16  4373.40  4376.47  4384.03  4395.57
                             4422.40  4424.04  4477.48  4486.46  4489.39
                             4533.86  4545.48  4551.49  4560.59  4575.84
                             4585.72

 Zero-point correction=                           0.295016 (Hartree/Particle)
 Thermal correction to Energy=                    0.312109
 Thermal correction to Enthalpy=                  0.313053
 Thermal correction to Gibbs Free Energy=         0.250323
 Sum of electronic and zero-point Energies=           -768.026875
 Sum of electronic and thermal Energies=              -768.009782
 Sum of electronic and thermal Enthalpies=            -768.008837
 Sum of electronic and thermal Free Energies=         -768.071568

                     E (Thermal)             CV                S
                      KCal/Mol        Cal/Mol-Kelvin    Cal/Mol-Kelvin
 Total                  195.851             61.475            132.028
 Electronic               0.000              0.000              0.000
 Translational            0.889              2.981             42.056
 Rotational               0.889              2.981             32.473
 Vibrational            194.074             55.514             57.499
 Vibration     1          0.595              1.980              5.124
 Vibration     2          0.596              1.974              4.505
 Vibration     3          0.598              1.970              4.240
 Vibration     4          0.601              1.958              3.701
 Vibration     5          0.606              1.944              3.321
 Vibration     6          0.607              1.939              3.227
 Vibration     7          0.614              1.916              2.835
 Vibration     8          0.618              1.904              2.688
 Vibration     9          0.624              1.883              2.468
 Vibration    10          0.634              1.851              2.212
 Vibration    11          0.637              1.843              2.155
 Vibration    12          0.647              1.810              1.953
 Vibration    13          0.652              1.794              1.874
 Vibration    14          0.661              1.767              1.747
 Vibration    15          0.667              1.749              1.676
 Vibration    16          0.679              1.714              1.546
 Vibration    17          0.681              1.708              1.525
 Vibration    18          0.703              1.642              1.329
 Vibration    19          0.716              1.607              1.239
 Vibration    20          0.729              1.571              1.157
 Vibration    21          0.782              1.429              0.895
 Vibration    22          0.807              1.365              0.802
 Vibration    23          0.828              1.314              0.734
 Vibration    24          0.868              1.221              0.627
 Vibration    25          0.906              1.137              0.542
 Vibration    26          0.944              1.059              0.472
 Vibration    27          0.976              0.997              0.422

                           ! Non-Optimized Parameters !
 Normal termination of Gaussian 16 at Fri May 24 08:52:46 2019.
