 Gaussian 16, Revision A.03,
 Gaussian 16:  ES64L-G16RevA.03 25-Dec-2016

 -------------------------------------------------------------------
 #p b3lyp 6-31g* opt freq=noraman scrf=(pcm,solvent=tetrahydrofuran)
 -------------------------------------------------------------------

 -----
 title
 -----
 Symbolic Z-matrix:
 Charge =  1 Multiplicity = 1

 SCF Done:  E(RB3LYP) =  -768.323078436     A.U. after   14 cycles
 Optimization completed.
    -- Stationary point found.
 Normal termination of Gaussian 16 at Fri May 24 08:38:42 2019.

 --------------------------------------------------------------------
 #P Geom=AllCheck Guess=TCheck SCRF=Check GenChk RB3LYP/6-31G(d) Freq
 --------------------------------------------------------------------

 Structure from the checkpoint file:  "/scratch/Gau-60811.chk"
 -----
 title
 -----
 Charge =  1 Multiplicity = 1

                         Standard orientation:
 ---------------------------------------------------------------------
 Center     Atomic      Atomic             Coordinates (Angstroms)
 Number     Number       Type             X           Y           Z
 ---------------------------------------------------------------------
      1          6           0        1.252914    0.391394   -0.112542
      2          6           0        1.400819   -1.083985   -0.577846
      3          6           0        0.214141   -1.929168   -0.226783
      4          6           0       -1.258353   -0.031228    0.187953
      5          6           0       -0.177240    0.853220   -0.462535
      6          1           0        0.307652   -3.017510   -0.241516
      7          1           0        1.375669   -1.060103   -1.683140
      8          1           0        1.421538    0.450858    0.972277
      9          1           0       -1.306030    0.091754    1.271382
     10          1           0       -0.280151    0.787350   -1.552230
     11          8           0       -0.929463   -1.508689    0.062384
     12          8           0        2.586300   -1.759531   -0.254642
     13          8           0        2.127425    1.234702   -0.811611
     14          8           0       -0.467024    2.197979   -0.157186
     15          6           0       -2.639756    0.129682   -0.413086
     16          1           0       -2.645926   -0.240235   -1.451176
     17          1           0       -2.848840    1.209780   -0.440961
     18          8           0       -3.552548   -0.566942    0.397512
     19          6           0        2.850794   -1.947703    1.145603
     20          1           0        3.125072   -1.007911    1.634856
     21          1           0        1.992151   -2.393820    1.665859
     22          1           0        3.692694   -2.638362    1.194837
     23          6           0        3.464269    1.317292   -0.306527
     24          1           0        4.010519    0.381255   -0.459357
     25          1           0        3.948517    2.116928   -0.869453
     26          1           0        3.466017    1.578371    0.760285
     27          6           0       -0.026354    2.712861    1.103795
     28          1           0        1.062811    2.821087    1.127031
     29          1           0       -0.484616    3.699229    1.189267
     30          1           0       -0.354993    2.098606    1.951257
     31          6           0       -4.891802   -0.465011   -0.073057
     32          1           0       -5.226802    0.581479   -0.098281
     33          1           0       -4.995708   -0.896191   -1.078788
     34          1           0       -5.513677   -1.026849    0.626335
 ---------------------------------------------------------------------

 SCF Done:  E(RB3LYP) =  -768.323078436     A.U. after    1 cycles

 The electronic state is 1-A.
 Alpha  occ. eigenvalues --  -19.33476 -19.21437 -19.19670 -19.19300 -19.18215
 Alpha  occ. eigenvalues --  -10.40173 -10.32294 -10.32194 -10.30132 -10.30050
 Alpha  occ. eigenvalues --  -10.27727 -10.26686 -10.25467 -10.25108 -10.24571
 Alpha  occ. eigenvalues --   -1.22102  -1.10064  -1.08481  -1.06743  -1.06521
 Alpha  occ. eigenvalues --   -0.87512  -0.86075  -0.77906  -0.75458  -0.73934
 Alpha  occ. eigenvalues --   -0.72331  -0.68795  -0.67947  -0.65763  -0.63121
 Alpha  occ. eigenvalues --   -0.60758  -0.58809  -0.56030  -0.55266  -0.53969
 Alpha  occ. eigenvalues --   -0.52504  -0.52155  -0.51202  -0.50159  -0.49352
 Alpha  occ. eigenvalues --   -0.48883  -0.48171  -0.46506  -0.46071  -0.45313
 Alpha  occ. eigenvalues --   -0.44197  -0.43295  -0.42504  -0.42153  -0.41737
 Alpha  occ. eigenvalues --   -0.39737  -0.37463  -0.36239  -0.35404  -0.34498
 Alpha  occ. eigenvalues --   -0.33397  -0.30385  -0.29075  -0.28693
 Alpha virt. eigenvalues --   -0.15718  -0.00389   0.04326   0.04539   0.06533
 Alpha virt. eigenvalues --    0.07060   0.07396   0.08057   0.09295   0.10657
 Alpha virt. eigenvalues --    0.10869   0.11439   0.11764   0.12323   0.13248

 Mulliken charges:
               1
     1  C    0.094366
     2  C    0.040961
     3  C    0.277969
     4  C    0.047313
     5  C    0.095560
     6  H    0.283922
     7  H    0.260519
     8  H    0.175275
     9  H    0.237743
    10  H    0.195111
    11  O   -0.295869
    12  O   -0.467197
    13  O   -0.481089
    14  O   -0.476189
    15  C   -0.019568
    16  H    0.167819
    17  H    0.188346
    18  O   -0.483303
    19  C   -0.246260
    20  H    0.178166
    21  H    0.166348
    22  H    0.205534
    23  C   -0.230374
    24  H    0.173932
    25  H    0.186304
    26  H    0.159555
    27  C   -0.239206
    28  H    0.174277
    29  H    0.191793
    30  H    0.160747
    31  C   -0.212081
    32  H    0.156396
    33  H    0.154981
    34  H    0.178202
 Sum of Mulliken charges =   1.00000

 Dipole moment (field-independent basis, Debye):
    X=              0.8270    Y=             -3.8649    Z=              1.5476  Tot=              4.2446
 Quadrupole moment (field-independent basis, Debye-Ang):
   XX=            -61.6020   YY=            -73.6791   ZZ=            -81.6266
   XY=             -2.4618   XZ=              9.5348   YZ=              4.6158

  Exact polarizability: 167.307  -2.625 145.207  -1.013   2.170 117.563
 Approx polarizability: 173.745  -3.821 163.839  -4.486  -0.585 147.188

                      1                      2                      3
                      A                      A                      A
 Frequencies --     45.8466                49.9621                63.2789
 Red. masses --      3.9010                 3.0798                 3.2654
 Frc consts  --      0.0048                 0.0045                 0.0077
 IR Inten    --      0.6700                 0.5539                 2.2055

                      4                      5                      6
                      A                      A                      A
 Frequencies --     87.3719                96.1447               100.0990
 Red. masses --      2.2752                 2.2440                 1.9784
 Frc consts  --      0.0102                 0.0122                 0.0117
 IR Inten    --      8.2056                 0.4170                 3.2477

                      7                      8                      9
                      A                      A                      A
 Frequencies --    120.2339               141.8382               163.6323
 Red. masses --      2.8459                 2.4662                 1.7533
 Frc consts  --      0.0242                 0.0292                 0.0277
 IR Inten    --     14.0112                 0.9867                 0.2024

                     10                     11                     12
                      A                      A                      A
 Frequencies --    177.5552               185.7098               188.2742
 Red. masses --      3.0013                 1.2421                 1.3360
 Frc consts  --      0.0557                 0.0252                 0.0279
 IR Inten    --      2.2484                 0.5981                 0.5812

                     13                     14                     15
                      A                      A                      A
 Frequencies --    223.4462               237.2772               243.3811
 Red. masses --      1.6189                 2.2976                 2.9983
 Frc consts  --      0.0476                 0.0762                 0.1046
 IR Inten    --     13.0883                 5.3227                 0.5454

                     16                     17                     18
                      A                      A                      A
 Frequencies --    271.9482               298.6454               302.0687
 Red. masses --      3.9249                 3.8170                 4.6499
 Frc consts  --      0.1710                 0.2006                 0.2500
 IR Inten    --      5.7813                 4.4010                17.5542

                     19                     20                     21
                      A                      A                      A
 Frequencies --    336.1418               353.1560               405.5251
 Red. masses --      3.2661                 3.5060                 4.4498
 Frc consts  --      0.2174                 0.2576                 0.4312
 IR Inten    --      2.0265                 3.3655                 6.9263

                     22                     23                     24
                      A                      A                      A
 Frequencies --    436.1512               472.2198               505.9844
 Red. masses --      5.0812                 5.0325                 3.3816
 Frc consts  --      0.5695                 0.6612                 0.5101
 IR Inten    --     13.0073                 6.3599                24.4483

                     25                     26                     27
                      A                      A                      A
 Frequencies --    570.7939               575.2979               632.6636
 Red. masses --      3.1448                 4.0219                 2.9515
 Frc consts  --      0.6037                 0.7843                 0.6960
 IR Inten    --      2.2833                17.9545                16.5393

                     28                     29                     30
                      A                      A                      A
 Frequencies --    709.0388               718.5127               833.2044
 Red. masses --      4.4058                 3.9770                 2.1331
 Frc consts  --      1.3050                 1.2097                 0.8725
 IR Inten    --     35.0442                78.1273                22.6665

                     31                     32                     33
                      A                      A                      A
 Frequencies --    915.8711               955.3072               971.4739
 Red. masses --      3.9328                 4.3044                 3.8420
 Frc consts  --      1.9437                 2.3145                 2.1363
 IR Inten    --     14.7518                92.1301                 3.9840

                     34                     35                     36
                      A                      A                      A
 Frequencies --    982.7370              1013.8223              1041.8729
 Red. masses --      4.1610                 2.5784                 2.3790
 Frc consts  --      2.3677                 1.5614                 1.5215
 IR Inten    --     34.2669                40.1957                14.2181

                     37                     38                     39
                      A                      A                      A
 Frequencies --   1069.9277              1093.6281              1102.0917
 Red. masses --      3.4854                 2.7644                 3.3548
 Frc consts  --      2.3508                 1.9480                 2.4008
 IR Inten    --     69.8446                44.8745                 6.9061

                     40                     41                     42
                      A                      A                      A
 Frequencies --   1141.3629              1148.1094              1161.4198
 Red. masses --      3.3622                 2.1784                 3.3407
 Frc consts  --      2.5806                 1.6919                 2.6550
 IR Inten    --    123.6387                33.5773               374.6250

                     43                     44                     45
                      A                      A                      A
 Frequencies --   1164.9277              1172.5598              1183.1646
 Red. masses --      4.9575                 2.0575                 1.2830
 Frc consts  --      3.9638                 1.6667                 1.0582
 IR Inten    --     24.9100                63.8054                 4.9002

                     46                     47                     48
                      A                      A                      A
 Frequencies --   1186.1430              1189.1209              1190.9000
 Red. masses --      1.2819                 1.9458                 1.3075
 Frc consts  --      1.0627                 1.6210                 1.0925
 IR Inten    --      1.9497                80.8413                 1.6625

                     49                     50                     51
                      A                      A                      A
 Frequencies --   1220.3300              1230.0848              1234.1156
 Red. masses --      1.5242                 1.5358                 1.7299
 Frc consts  --      1.3373                 1.3691                 1.5524
 IR Inten    --     76.4538                45.4779                31.5597

                     52                     53                     54
                      A                      A                      A
 Frequencies --   1241.2020              1261.6766              1277.1136
 Red. masses --      1.7254                 1.4781                 1.2771
 Frc consts  --      1.5661                 1.3863                 1.2273
 IR Inten    --     20.1328                18.7418                11.6139

                     55                     56                     57
                      A                      A                      A
 Frequencies --   1289.8093              1329.9765              1346.0638
 Red. masses --      1.3816                 1.2989                 1.2360
 Frc consts  --      1.3542                 1.3537                 1.3195
 IR Inten    --     38.8117                30.2146                14.3915

                     58                     59                     60
                      A                      A                      A
 Frequencies --   1363.5803              1391.5624              1406.8741
 Red. masses --      1.2142                 1.3186                 1.3423
 Frc consts  --      1.3301                 1.5044                 1.5653
 IR Inten    --     12.4932                 6.9341                18.6172

                     61                     62                     63
                      A                      A                      A
 Frequencies --   1427.5154              1448.3962              1462.7521
 Red. masses --      1.2424                 1.4695                 1.1725
 Frc consts  --      1.4917                 1.8164                 1.4781
 IR Inten    --     27.5503                41.4619                10.1251

                     64                     65                     66
                      A                      A                      A
 Frequencies --   1498.2883              1499.4774              1501.7839
 Red. masses --      1.1274                 1.1427                 1.1546
 Frc consts  --      1.4911                 1.5138                 1.5342
 IR Inten    --      4.6094                 1.4314                 1.1074

                     67                     68                     69
                      A                      A                      A
 Frequencies --   1502.8795              1508.2299              1509.3401
 Red. masses --      1.0741                 1.0922                 1.0458
 Frc consts  --      1.4294                 1.4639                 1.4036
 IR Inten    --      5.1256                 4.6668                 9.3733

                     70                     71                     72
                      A                      A                      A
 Frequencies --   1513.4625              1514.1362              1523.3076
 Red. masses --      1.0745                 1.0508                 1.0607
 Frc consts  --      1.4502                 1.4194                 1.4502
 IR Inten    --      9.9883                 8.0959                17.7575

                     73                     74                     75
                      A                      A                      A
 Frequencies --   1533.3248              1535.4005              1537.8352
 Red. masses --      1.0570                 1.0539                 1.0611
 Frc consts  --      1.4642                 1.4639                 1.4785
 IR Inten    --     27.9195                16.5076                 5.7879

                     76                     77                     78
                      A                      A                      A
 Frequencies --   1541.7251              1656.3230              2984.2457
 Red. masses --      1.1012                 7.5172                 1.0785
 Frc consts  --      1.5422                12.1506                 5.6592
 IR Inten    --      4.7594               237.3869                28.5086

                     79                     80                     81
                      A                      A                      A
 Frequencies --   3003.8939              3019.1529              3030.3037
 Red. masses --      1.0578                 1.0371                 1.0691
 Frc consts  --      5.6236                 5.5701                 5.7839
 IR Inten    --     35.7401                68.1657                 8.6263

                     82                     83                     84
                      A                      A                      A
 Frequencies --   3035.9868              3039.4030              3044.1246
 Red. masses --      1.0432                 1.0508                 1.0379
 Frc consts  --      5.6653                 5.7191                 5.6668
 IR Inten    --     35.4195                38.0358                64.1397

                     85                     86                     87
                      A                      A                      A
 Frequencies --   3048.8029              3071.5858              3072.9271
 Red. masses --      1.1004                 1.0862                 1.1063
 Frc consts  --      6.0264                 6.0379                 6.1547
 IR Inten    --     32.0790                29.8319                46.3259

                     88                     89                     90
                      A                      A                      A
 Frequencies --   3114.3224              3114.8303              3117.4164
 Red. masses --      1.1004                 1.1022                 1.0982
 Frc consts  --      6.2881                 6.3006                 6.2882
 IR Inten    --     24.4076                57.2210                51.2903

                     91                     92                     93
                      A                      A                      A
 Frequencies --   3148.0481              3158.5011              3166.8457
 Red. masses --      1.0866                 1.0996                 1.1033
 Frc consts  --      6.3447                 6.4630                 6.5190
 IR Inten    --      2.6227                28.7292                21.2284

                     94                     95                     96
                      A                      A                      A
 Frequencies --   3167.7894              3176.7863              3183.7412
 Red. masses --      1.1021                 1.0949                 1.1019
 Frc consts  --      6.5158                 6.5104                 6.5806
 IR Inten    --     23.0955                 0.6785                14.1351

 - Thermochemistry -
 -------------------
 Temperature   298.150 Kelvin.  Pressure   1.00000 Atm.
 Atom     1 has atomic number  6 and mass  12.00000

 Molecular mass:   219.12325 amu.
 Principal axes and moments of inertia in atomic units:
                           1         2         3
     Eigenvalues --  2014.421814761.487376187.04047
           X            0.99991   0.00028   0.01311
           Y           -0.00041   0.99995   0.01011
           Z           -0.01311  -0.01012   0.99986
 This molecule is an asymmetric top.
 Rotational symmetry number  1.
 Warning -- assumption of classical behavior for rotation
           may cause significant error
 Rotational temperatures (Kelvin)      0.04300     0.01819     0.01400
 Rotational constants (GHZ):           0.89591     0.37903     0.29170
 Zero-point vibrational energy     772997.7 (Joules/Mol)
                                  184.75088 (Kcal/Mol)
 Warning -- explicit consideration of  26 degrees of freedom as
           vibrations may cause significant error
 Vibrational temperatures:     65.96    71.88    91.04   125.71   138.33
          (Kelvin)            144.02   172.99   204.07   235.43   255.46
                              267.19   270.88   321.49   341.39   350.17
                              391.27   429.68   434.61   483.63   508.11
                              583.46   627.52   679.42   728.00   821.25
                              827.73   910.26  1020.15  1033.78  1198.80
                             1317.73  1374.47  1397.73  1413.94  1458.66
                             1499.02  1539.39  1573.49  1585.66  1642.17
                             1651.87  1671.02  1676.07  1687.05  1702.31
                             1706.60  1710.88  1713.44  1755.78  1769.82
                             1775.62  1785.81  1815.27  1837.48  1855.75
                             1913.54  1936.69  1961.89  2002.15  2024.18
                             2053.88  2083.92  2104.57  2155.70  2157.41
                             2160.73  2162.31  2170.01  2171.60  2177.53
                             2178.50  2191.70  2206.11  2209.10  2212.60
                             2218.20  2383.08  4293.66  4321.93  4343.89
                             4359.93  4368.11  4373.02  4379.82  4386.55
                             4419.33  4421.26  4480.82  4481.55  4485.27
                             4529.34  4544.38  4556.38  4557.74  4570.69
                             4580.69

 Zero-point correction=                           0.294419 (Hartree/Particle)
 Thermal correction to Energy=                    0.311795
 Thermal correction to Enthalpy=                  0.312739
 Thermal correction to Gibbs Free Energy=         0.249058
 Sum of electronic and zero-point Energies=           -768.028659
 Sum of electronic and thermal Energies=              -768.011284
 Sum of electronic and thermal Enthalpies=            -768.010340
 Sum of electronic and thermal Free Energies=         -768.074020

                     E (Thermal)             CV                S
                      KCal/Mol        Cal/Mol-Kelvin    Cal/Mol-Kelvin
 Total                  195.654             61.771            134.026
 Electronic               0.000              0.000              0.000
 Translational            0.889              2.981             42.056
 Rotational               0.889              2.981             32.451
 Vibrational            193.877             55.809             59.519
 Vibration     1          0.595              1.979              4.989
 Vibration     2          0.595              1.978              4.819
 Vibration     3          0.597              1.972              4.352
 Vibration     4          0.601              1.958              3.718
 Vibration     5          0.603              1.952              3.531
 Vibration     6          0.604              1.949              3.452
 Vibration     7          0.609              1.932              3.097
 Vibration     8          0.615              1.911              2.779
 Vibration     9          0.623              1.887              2.507
 Vibration    10          0.628              1.870              2.354
 Vibration    11          0.632              1.859              2.270
 Vibration    12          0.633              1.856              2.245
 Vibration    13          0.649              1.805              1.931
 Vibration    14          0.656              1.784              1.823
 Vibration    15          0.659              1.774              1.778
 Vibration    16          0.675              1.725              1.584
 Vibration    17          0.692              1.676              1.424
 Vibration    18          0.694              1.670              1.405
 Vibration    19          0.717              1.603              1.230
 Vibration    20          0.729              1.569              1.152
 Vibration    21          0.771              1.458              0.943
 Vibration    22          0.797              1.391              0.839
 Vibration    23          0.829              1.312              0.731
 Vibration    24          0.861              1.237              0.643
 Vibration    25          0.927              1.094              0.503
 Vibration    26          0.932              1.085              0.494

 Optimization completed.
    -- Stationary point found.
 Normal termination of Gaussian 16 at Fri May 24 09:25:37 2019.
