 Gaussian 16, Revision A.03,
 Gaussian 16:  ES64L-G16RevA.03 25-Dec-2016

 -------------------------------------------------------------------
 #p b3lyp 6-31g* opt freq=noraman scrf=(pcm,solvent=tetrahydrofuran)
 -------------------------------------------------------------------

 -----
 title
 -----
 Symbolic Z-matrix:
 Charge =  1 Multiplicity = 1

 SCF Done:  E(RB3LYP) =  -768.329079754     A.U. after   14 cycles
 Optimization completed.
    -- Stationary point found.
 Normal termination of Gaussian 16 at Fri May 24 08:33:13 2019.

 --------------------------------------------------------------------
 #P Geom=AllCheck Guess=TCheck SCRF=Check GenChk RB3LYP/6-31G(d) Freq
 --------------------------------------------------------------------

 Structure from the checkpoint file:  "/scratch/Gau-28371.chk"
 -----
 title
 -----
 Charge =  1 Multiplicity = 1

                         Standard orientation:
 ---------------------------------------------------------------------
 Center     Atomic      Atomic             Coordinates (Angstroms)
 Number     Number       Type             X           Y           Z
 ---------------------------------------------------------------------
      1          6           0       -1.056300    0.552713   -0.274273
      2          6           0       -1.684620   -0.777003    0.215364
      3          6           0       -0.972778   -1.932409   -0.401515
      4          6           0        1.134709   -0.725944   -0.680037
      5          6           0        0.465102    0.512143   -0.052206
      6          1           0       -1.502578   -2.863675   -0.609653
      7          1           0       -1.531899   -0.830937    1.307783
      8          1           0       -1.259930    0.663884   -1.347360
      9          1           0        1.376108   -0.516183   -1.722867
     10          1           0        0.654808    0.524295    1.028906
     11          8           0        0.218182   -1.918190   -0.801988
     12          8           0       -3.038633   -0.860350   -0.140121
     13          8           0       -1.571270    1.627397    0.462225
     14          8           0        1.055540    1.626391   -0.683464
     15          6           0        2.352451   -1.278313    0.064984
     16          1           0        2.728264   -2.168053   -0.462000
     17          1           0        2.057703   -1.583466    1.082615
     18          8           0        3.305645   -0.246405    0.091691
     19          6           0       -3.888257   -1.446455    0.856963
     20          1           0       -3.829768   -0.877211    1.792281
     21          1           0       -4.900807   -1.400060    0.455631
     22          1           0       -3.620359   -2.493013    1.048056
     23          6           0       -2.608059    2.372716   -0.185620
     24          1           0       -3.484969    1.746710   -0.379106
     25          1           0       -2.875593    3.177209    0.501846
     26          1           0       -2.247211    2.804221   -1.127494
     27          6           0        1.588450    2.612770    0.204868
     28          1           0        1.994626    3.401359   -0.431828
     29          1           0        0.804614    3.028504    0.846727
     30          1           0        2.392714    2.187790    0.815643
     31          6           0        4.506068   -0.634761    0.753195
     32          1           0        5.175668    0.226122    0.715881
     33          1           0        4.313840   -0.903427    1.801398
     34          1           0        4.978458   -1.487554    0.246467
 ---------------------------------------------------------------------

 SCF Done:  E(RB3LYP) =  -768.329079754     A.U. after    1 cycles

 The electronic state is 1-A.
 Alpha  occ. eigenvalues --  -19.33198 -19.21289 -19.18988 -19.18616 -19.18503
 Alpha  occ. eigenvalues --  -10.39708 -10.31973 -10.31666 -10.29352 -10.29205
 Alpha  occ. eigenvalues --  -10.27919 -10.26229 -10.24727 -10.24709 -10.24226
 Alpha  occ. eigenvalues --   -1.21768  -1.09923  -1.07879  -1.06942  -1.05862
 Alpha  occ. eigenvalues --   -0.87182  -0.85891  -0.77246  -0.74863  -0.73190
 Alpha  occ. eigenvalues --   -0.71205  -0.68261  -0.67149  -0.65833  -0.63071
 Alpha  occ. eigenvalues --   -0.60193  -0.59005  -0.55559  -0.54896  -0.53488
 Alpha  occ. eigenvalues --   -0.51939  -0.51352  -0.50720  -0.50392  -0.48987
 Alpha  occ. eigenvalues --   -0.48528  -0.47770  -0.46229  -0.45779  -0.45260
 Alpha  occ. eigenvalues --   -0.44195  -0.42762  -0.41905  -0.40917  -0.40024
 Alpha  occ. eigenvalues --   -0.39506  -0.37403  -0.35671  -0.35473  -0.35094
 Alpha  occ. eigenvalues --   -0.32368  -0.30050  -0.29065  -0.27982
 Alpha virt. eigenvalues --   -0.15288  -0.00635   0.04341   0.05594   0.06948
 Alpha virt. eigenvalues --    0.07191   0.08092   0.09502   0.09910   0.11213
 Alpha virt. eigenvalues --    0.11485   0.11582   0.12125   0.12710   0.13807

 Mulliken charges:
               1
     1  C    0.125615
     2  C    0.033569
     3  C    0.298174
     4  C    0.062771
     5  C    0.102748
     6  H    0.277620
     7  H    0.235029
     8  H    0.182136
     9  H    0.244870
    10  H    0.181125
    11  O   -0.315103
    12  O   -0.469894
    13  O   -0.485744
    14  O   -0.484289
    15  C   -0.022850
    16  H    0.174127
    17  H    0.161032
    18  O   -0.470238
    19  C   -0.234035
    20  H    0.180781
    21  H    0.197722
    22  H    0.170421
    23  C   -0.224815
    24  H    0.169153
    25  H    0.179924
    26  H    0.165323
    27  C   -0.222221
    28  H    0.175869
    29  H    0.163784
    30  H    0.164335
    31  C   -0.211805
    32  H    0.181189
    33  H    0.155560
    34  H    0.158117
 Sum of Mulliken charges =   1.00000

 Dipole moment (field-independent basis, Debye):
    X=             -2.2639    Y=             -6.1266    Z=              1.3799  Tot=              6.6756
 Quadrupole moment (field-independent basis, Debye-Ang):
   XX=            -55.2638   YY=            -66.1896   ZZ=            -83.8307
   XY=              2.8153   XZ=              1.1164   YZ=             -0.4320

  Exact polarizability: 175.491   2.640 152.150  -5.184   2.776 114.200
 Approx polarizability: 179.887   0.383 169.595  -6.706   3.786 144.172

                      1                      2                      3
                      A                      A                      A
 Frequencies --     36.8356                61.0617                67.0833
 Red. masses --      4.0013                 3.5549                 2.5745
 Frc consts  --      0.0032                 0.0078                 0.0068
 IR Inten    --      0.2355                 1.0471                 1.7832

                      4                      5                      6
                      A                      A                      A
 Frequencies --     73.6992                81.5068                86.3702
 Red. masses --      2.5577                 2.6762                 2.3725
 Frc consts  --      0.0082                 0.0105                 0.0104
 IR Inten    --      4.7507                 2.6580                11.8991

                      7                      8                      9
                      A                      A                      A
 Frequencies --    100.0081               121.8771               154.3997
 Red. masses --      2.8964                 3.1244                 1.1845
 Frc consts  --      0.0171                 0.0273                 0.0166
 IR Inten    --      2.8947                 2.5331                 0.9218

                     10                     11                     12
                      A                      A                      A
 Frequencies --    167.0293               183.4719               190.0966
 Red. masses --      2.3528                 1.2552                 1.4946
 Frc consts  --      0.0387                 0.0249                 0.0318
 IR Inten    --      2.6903                 1.1253                 0.3817

                     13                     14                     15
                      A                      A                      A
 Frequencies --    211.2957               231.3585               258.7026
 Red. masses --      1.9741                 1.5395                 3.5876
 Frc consts  --      0.0519                 0.0486                 0.1415
 IR Inten    --      3.4944                10.8700                 9.8279

                     16                     17                     18
                      A                      A                      A
 Frequencies --    272.9166               289.7973               305.9741
 Red. masses --      4.5385                 4.5580                 3.6453
 Frc consts  --      0.1992                 0.2255                 0.2011
 IR Inten    --     11.6935                10.8695                 5.9571

                     19                     20                     21
                      A                      A                      A
 Frequencies --    337.9748               354.9069               395.8302
 Red. masses --      4.1981                 4.5814                 4.5351
 Frc consts  --      0.2825                 0.3400                 0.4187
 IR Inten    --      1.8693                 0.9789                 4.7936

                     22                     23                     24
                      A                      A                      A
 Frequencies --    438.7372               466.5113               501.1814
 Red. masses --      4.9621                 3.6151                 3.7917
 Frc consts  --      0.5628                 0.4635                 0.5611
 IR Inten    --      1.0831                13.0115                14.9479

                     25                     26                     27
                      A                      A                      A
 Frequencies --    524.8497               559.7048               600.5910
 Red. masses --      3.3976                 3.1743                 2.8932
 Frc consts  --      0.5514                 0.5859                 0.6149
 IR Inten    --     50.5282                 5.1985                11.8150

                     28                     29                     30
                      A                      A                      A
 Frequencies --    711.7115               805.7028               852.3217
 Red. masses --      4.3055                 6.8059                 2.0317
 Frc consts  --      1.2849                 2.6031                 0.8696
 IR Inten    --     51.8834                80.8173                26.3262

                     31                     32                     33
                      A                      A                      A
 Frequencies --    935.8625               954.3611               990.0144
 Red. masses --      2.0946                 4.7355                 4.3378
 Frc consts  --      1.0809                 2.5412                 2.5049
 IR Inten    --      1.5744                 5.8468                29.4477

                     34                     35                     36
                      A                      A                      A
 Frequencies --    999.7889              1028.1615              1066.6450
 Red. masses --      3.6391                 5.0555                 2.7156
 Frc consts  --      2.1432                 3.1488                 1.8203
 IR Inten    --     27.7545                85.7553                52.9484

                     37                     38                     39
                      A                      A                      A
 Frequencies --   1079.8434              1082.9768              1125.0124
 Red. masses --      4.0450                 3.1305                 2.4501
 Frc consts  --      2.7790                 2.1632                 1.8270
 IR Inten    --     81.0955                32.6868                86.8873

                     40                     41                     42
                      A                      A                      A
 Frequencies --   1139.2581              1143.4247              1156.5445
 Red. masses --      3.1984                 2.9219                 3.0952
 Frc consts  --      2.4459                 2.2508                 2.4393
 IR Inten    --    108.7760                93.9250               129.2981

                     43                     44                     45
                      A                      A                      A
 Frequencies --   1162.9228              1176.4091              1180.7573
 Red. masses --      4.0629                 1.8696                 1.2566
 Frc consts  --      3.2374                 1.5245                 1.0322
 IR Inten    --    311.2010                56.8429                 1.4804

                     46                     47                     48
                      A                      A                      A
 Frequencies --   1183.2586              1189.1651              1195.1604
 Red. masses --      1.6471                 1.4232                 1.3198
 Frc consts  --      1.3587                 1.1858                 1.1107
 IR Inten    --     57.5353                35.5058                23.2926

                     49                     50                     51
                      A                      A                      A
 Frequencies --   1211.1014              1225.7453              1233.1071
 Red. masses --      1.4222                 1.6382                 1.5494
 Frc consts  --      1.2291                 1.4502                 1.3881
 IR Inten    --     48.8546                 7.9349                16.7209

                     52                     53                     54
                      A                      A                      A
 Frequencies --   1236.5647              1246.5606              1269.8516
 Red. masses --      1.7101                 1.6195                 1.3775
 Frc consts  --      1.5407                 1.4828                 1.3088
 IR Inten    --     29.2397                12.1820                29.2280

                     55                     56                     57
                      A                      A                      A
 Frequencies --   1295.6531              1308.7166              1345.9421
 Red. masses --      1.3020                 1.2081                 1.2118
 Frc consts  --      1.2878                 1.2191                 1.2934
 IR Inten    --     27.7373                18.9410                 7.1324

                     58                     59                     60
                      A                      A                      A
 Frequencies --   1358.0217              1391.1700              1413.0078
 Red. masses --      1.2530                 1.2686                 1.3866
 Frc consts  --      1.3615                 1.4465                 1.6311
 IR Inten    --      6.3518                 5.2178                 2.9611

                     61                     62                     63
                      A                      A                      A
 Frequencies --   1426.3506              1434.5510              1454.1045
 Red. masses --      1.3541                 1.2589                 1.3085
 Frc consts  --      1.6232                 1.5264                 1.6301
 IR Inten    --     40.1753                44.9409                42.4811

                     64                     65                     66
                      A                      A                      A
 Frequencies --   1492.2400              1496.2775              1497.7988
 Red. masses --      1.1633                 1.1343                 1.1449
 Frc consts  --      1.5262                 1.4963                 1.5133
 IR Inten    --      3.3401                 3.6574                 0.6579

                     67                     68                     69
                      A                      A                      A
 Frequencies --   1501.5945              1508.3588              1508.6344
 Red. masses --      1.1553                 1.0483                 1.0510
 Frc consts  --      1.5349                 1.4053                 1.4094
 IR Inten    --      0.2233                 8.8337                 5.6230

                     70                     71                     72
                      A                      A                      A
 Frequencies --   1513.5136              1514.1667              1525.6431
 Red. masses --      1.0522                 1.0522                 1.0679
 Frc consts  --      1.4201                 1.4214                 1.4645
 IR Inten    --      3.6526                 8.6876                14.9476

                     73                     74                     75
                      A                      A                      A
 Frequencies --   1529.4699              1529.8372              1530.2476
 Red. masses --      1.0618                 1.0522                 1.0566
 Frc consts  --      1.4634                 1.4508                 1.4578
 IR Inten    --      6.9389                10.1154                14.0898

                     76                     77                     78
                      A                      A                      A
 Frequencies --   1555.5914              1639.3608              2996.5786
 Red. masses --      1.0879                 6.7186                 1.0580
 Frc consts  --      1.5510                10.6384                 5.5974
 IR Inten    --      2.1207               333.4322                43.2207

                     79                     80                     81
                      A                      A                      A
 Frequencies --   3001.1054              3021.4052              3039.0717
 Red. masses --      1.0780                 1.0359                 1.0634
 Frc consts  --      5.7203                 5.5717                 5.7866
 IR Inten    --     11.2602                70.6925                21.3561

                     82                     83                     84
                      A                      A                      A
 Frequencies --   3042.2209              3043.9285              3047.3040
 Red. masses --      1.1031                 1.0336                 1.0541
 Frc consts  --      6.0153                 5.6426                 5.7672
 IR Inten    --     68.5771                46.3608                40.0530

                     85                     86                     87
                      A                      A                      A
 Frequencies --   3050.4722              3064.5314              3076.8406
 Red. masses --      1.0342                 1.0831                 1.1068
 Frc consts  --      5.6703                 5.9930                 6.1734
 IR Inten    --     42.9857                24.4989                54.0479

                     88                     89                     90
                      A                      A                      A
 Frequencies --   3110.9183              3117.7199              3123.5051
 Red. masses --      1.1072                 1.1037                 1.1078
 Frc consts  --      6.3135                 6.3209                 6.3679
 IR Inten    --     38.5243                40.4597                36.2727

                     91                     92                     93
                      A                      A                      A
 Frequencies --   3153.4775              3160.7059              3163.2823
 Red. masses --      1.0875                 1.1040                 1.0997
 Frc consts  --      6.3717                 6.4982                 6.4831
 IR Inten    --      0.8425                25.6268                25.2587

                     94                     95                     96
                      A                      A                      A
 Frequencies --   3165.2217              3182.9978              3197.3607
 Red. masses --      1.1039                 1.1020                 1.0938
 Frc consts  --      6.5161                 6.5781                 6.5880
 IR Inten    --     24.9499                17.4635                 1.0812

 - Thermochemistry -
 -------------------
 Temperature   298.150 Kelvin.  Pressure   1.00000 Atm.
 Atom     1 has atomic number  6 and mass  12.00000

 Molecular mass:   219.12325 amu.
 Principal axes and moments of inertia in atomic units:
                           1         2         3
     Eigenvalues --  2017.042184671.587056202.86154
           X            0.99999  -0.00359   0.00333
           Y            0.00363   0.99991  -0.01263
           Z           -0.00329   0.01265   0.99991
 This molecule is an asymmetric top.
 Rotational symmetry number  1.
 Warning -- assumption of classical behavior for rotation
           may cause significant error
 Rotational temperatures (Kelvin)      0.04294     0.01854     0.01396
 Rotational constants (GHZ):           0.89475     0.38632     0.29095
 Zero-point vibrational energy     772697.3 (Joules/Mol)
                                  184.67909 (Kcal/Mol)
 Warning -- explicit consideration of  27 degrees of freedom as
           vibrations may cause significant error
 Vibrational temperatures:     53.00    87.85    96.52   106.04   117.27
          (Kelvin)            124.27   143.89   175.35   222.15   240.32
                              263.98   273.51   304.01   332.87   372.22
                              392.67   416.95   440.23   486.27   510.63
                              569.51   631.24   671.21   721.09   755.14
                              805.29   864.12  1023.99  1159.23  1226.30
                             1346.50  1373.11  1424.41  1438.47  1479.30
                             1534.66  1553.65  1558.16  1618.64  1639.14
                             1645.13  1664.01  1673.19  1692.59  1698.85
                             1702.45  1710.94  1719.57  1742.50  1763.57
                             1774.17  1779.14  1793.52  1827.03  1864.16
                             1882.95  1936.51  1953.89  2001.58  2033.00
                             2052.20  2064.00  2092.13  2147.00  2152.81
                             2155.00  2160.46  2170.19  2170.59  2177.61
                             2178.55  2195.06  2200.57  2201.09  2201.68
                             2238.15  2358.67  4311.41  4317.92  4347.13
                             4372.55  4377.08  4379.53  4384.39  4388.95
                             4409.18  4426.89  4475.92  4485.70  4494.03
                             4537.15  4547.55  4551.26  4554.05  4579.62
                             4600.29

 Zero-point correction=                           0.294305 (Hartree/Particle)
 Thermal correction to Energy=                    0.311891
 Thermal correction to Enthalpy=                  0.312835
 Thermal correction to Gibbs Free Energy=         0.248261
 Sum of electronic and zero-point Energies=           -768.034775
 Sum of electronic and thermal Energies=              -768.017188
 Sum of electronic and thermal Enthalpies=            -768.016244
 Sum of electronic and thermal Free Energies=         -768.080819

                     E (Thermal)             CV                S
                      KCal/Mol        Cal/Mol-Kelvin    Cal/Mol-Kelvin
 Total                  195.715             61.842            135.909
 Electronic               0.000              0.000              0.000
 Translational            0.889              2.981             42.056
 Rotational               0.889              2.981             32.436
 Vibrational            193.937             55.880             61.417
 Vibration     1          0.594              1.982              5.422
 Vibration     2          0.597              1.973              4.423
 Vibration     3          0.598              1.970              4.237
 Vibration     4          0.599              1.966              4.052
 Vibration     5          0.600              1.962              3.854
 Vibration     6          0.601              1.959              3.741
 Vibration     7          0.604              1.949              3.454
 Vibration     8          0.609              1.931              3.070
 Vibration     9          0.620              1.898              2.617
 Vibration    10          0.624              1.883              2.469
 Vibration    11          0.631              1.862              2.293
 Vibration    12          0.633              1.854              2.227
 Vibration    13          0.643              1.824              2.032
 Vibration    14          0.653              1.793              1.868
 Vibration    15          0.668              1.748              1.671
 Vibration    16          0.676              1.723              1.578
 Vibration    17          0.686              1.693              1.475
 Vibration    18          0.696              1.662              1.384
 Vibration    19          0.718              1.600              1.222
 Vibration    20          0.731              1.565              1.144
 Vibration    21          0.763              1.479              0.978
 Vibration    22          0.799              1.386              0.831
 Vibration    23          0.824              1.324              0.747
 Vibration    24          0.857              1.247              0.655
 Vibration    25          0.880              1.195              0.599
 Vibration    26          0.915              1.118              0.524
 Vibration    27          0.959              1.031              0.449

                           ! Non-Optimized Parameters !
 Normal termination of Gaussian 16 at Fri May 24 08:55:29 2019.
