 Gaussian 16, Revision A.03,
 Gaussian 16:  ES64L-G16RevA.03 25-Dec-2016

 -------------------------------------------------------------------
 #p b3lyp 6-31g* opt freq=noraman scrf=(pcm,solvent=tetrahydrofuran)
 -------------------------------------------------------------------

 -----
 title
 -----
 Symbolic Z-matrix:
 Charge =  1 Multiplicity = 1

 SCF Done:  E(RB3LYP) =  -768.327857334     A.U. after   14 cycles
 Optimization completed.
    -- Stationary point found.
 Normal termination of Gaussian 16 at Fri May 24 08:34:41 2019.

 --------------------------------------------------------------------
 #P Geom=AllCheck Guess=TCheck SCRF=Check GenChk RB3LYP/6-31G(d) Freq
 --------------------------------------------------------------------

 Structure from the checkpoint file:  "/scratch/Gau-25780.chk"
 -----
 title
 -----
 Charge =  1 Multiplicity = 1

                         Standard orientation:
 ---------------------------------------------------------------------
 Center     Atomic      Atomic             Coordinates (Angstroms)
 Number     Number       Type             X           Y           Z
 ---------------------------------------------------------------------
      1          6           0       -1.087556    0.489673   -0.481227
      2          6           0       -1.460000   -0.937215    0.003626
      3          6           0       -0.522149   -1.963654   -0.525693
      4          6           0        1.264591   -0.379964   -1.041871
      5          6           0        0.433960    0.729157   -0.369625
      6          1           0       -0.848658   -3.002931   -0.584877
      7          1           0       -1.330375   -1.003458    1.101607
      8          1           0       -1.359597    0.547195   -1.539628
      9          1           0        1.301682   -0.211166   -2.119323
     10          1           0        0.739901    0.799020    0.681444
     11          8           0        0.636071   -1.750093   -0.952455
     12          8           0       -2.737571   -1.351224   -0.398702
     13          8           0       -1.873702    1.484157    0.137830
     14          8           0        0.829910    1.878324   -1.091257
     15          6           0        2.657968   -0.553242   -0.471793
     16          1           0        3.192577    0.395947   -0.630658
     17          1           0        3.191321   -1.341660   -1.022445
     18          8           0        2.527135   -0.870559    0.894351
     19          6           0       -3.783691   -1.196878    0.571547
     20          1           0       -3.536648   -1.718257    1.504302
     21          1           0       -3.976852   -0.138299    0.768980
     22          1           0       -4.669016   -1.652984    0.126992
     23          6           0       -1.744152    1.673685    1.549430
     24          1           0       -2.466026    2.450894    1.804544
     25          1           0       -1.992213    0.768830    2.118359
     26          1           0       -0.743351    2.012464    1.836749
     27          6           0        0.869511    3.105591   -0.358883
     28          1           0       -0.137605    3.458756   -0.117074
     29          1           0        1.457618    2.997301    0.561619
     30          1           0        1.359249    3.829110   -1.013391
     31          6           0        3.781992   -1.000909    1.555385
     32          1           0        3.564674   -1.237247    2.598621
     33          1           0        4.380085   -1.810588    1.115430
     34          1           0        4.355650   -0.065250    1.505224
 ---------------------------------------------------------------------

 SCF Done:  E(RB3LYP) =  -768.327857334     A.U. after    1 cycles

 The electronic state is 1-A.
 Alpha  occ. eigenvalues --  -19.33015 -19.20720 -19.19706 -19.19239 -19.18760
 Alpha  occ. eigenvalues --  -10.39616 -10.32134 -10.31836 -10.29404 -10.29338
 Alpha  occ. eigenvalues --  -10.27820 -10.25790 -10.25676 -10.24986 -10.24906
 Alpha  occ. eigenvalues --   -1.21707  -1.09583  -1.08089  -1.07025  -1.06423
 Alpha  occ. eigenvalues --   -0.87415  -0.85825  -0.77692  -0.75100  -0.73998
 Alpha  occ. eigenvalues --   -0.71331  -0.69306  -0.67613  -0.65680  -0.62036
 Alpha  occ. eigenvalues --   -0.60682  -0.58707  -0.55929  -0.55095  -0.53644
 Alpha  occ. eigenvalues --   -0.52799  -0.51595  -0.50737  -0.50254  -0.49231
 Alpha  occ. eigenvalues --   -0.48331  -0.47690  -0.46724  -0.45703  -0.45426
 Alpha  occ. eigenvalues --   -0.44471  -0.42999  -0.42586  -0.41662  -0.40572
 Alpha  occ. eigenvalues --   -0.39913  -0.37033  -0.36276  -0.35290  -0.35117
 Alpha  occ. eigenvalues --   -0.32655  -0.31296  -0.29288  -0.27874
 Alpha virt. eigenvalues --   -0.15056   0.00174   0.04474   0.05479   0.05740
 Alpha virt. eigenvalues --    0.07303   0.07944   0.09811   0.09848   0.10625
 Alpha virt. eigenvalues --    0.11285   0.11520   0.11899   0.12905   0.13270

 Mulliken charges:
               1
     1  C    0.138837
     2  C    0.017477
     3  C    0.307250
     4  C    0.060077
     5  C    0.072957
     6  H    0.278650
     7  H    0.233219
     8  H    0.194649
     9  H    0.245941
    10  H    0.184974
    11  O   -0.306185
    12  O   -0.475810
    13  O   -0.479105
    14  O   -0.487971
    15  C   -0.030639
    16  H    0.184177
    17  H    0.179464
    18  O   -0.486155
    19  C   -0.232317
    20  H    0.170283
    21  H    0.182440
    22  H    0.193135
    23  C   -0.243547
    24  H    0.195043
    25  H    0.158955
    26  H    0.167163
    27  C   -0.226129
    28  H    0.174249
    29  H    0.160968
    30  H    0.182949
    31  C   -0.211487
    32  H    0.178160
    33  H    0.159199
    34  H    0.159128
 Sum of Mulliken charges =   1.00000

 Dipole moment (field-independent basis, Debye):
    X=              0.9758    Y=             -3.5758    Z=              1.5994  Tot=              4.0369
 Quadrupole moment (field-independent basis, Debye-Ang):
   XX=            -61.5171   YY=            -70.0116   ZZ=            -79.8410
   XY=              4.4191   XZ=             -6.2614   YZ=              4.4908

  Exact polarizability: 162.594   3.038 149.485  -9.413   3.939 125.226
 Approx polarizability: 173.815  -0.261 167.294 -10.522   3.432 152.444

                      1                      2                      3
                      A                      A                      A
 Frequencies --     31.4773                53.2786                67.9944
 Red. masses --      3.8651                 3.0953                 3.5863
 Frc consts  --      0.0023                 0.0052                 0.0098
 IR Inten    --      2.9112                 0.5586                 0.7549

                      4                      5                      6
                      A                      A                      A
 Frequencies --     85.8716                98.0429               102.3544
 Red. masses --      2.3692                 2.8873                 2.2855
 Frc consts  --      0.0103                 0.0164                 0.0141
 IR Inten    --      7.5350                 6.4096                 8.1223

                      7                      8                      9
                      A                      A                      A
 Frequencies --    116.4162               141.8359               176.9124
 Red. masses --      1.5093                 2.4493                 1.3027
 Frc consts  --      0.0121                 0.0290                 0.0240
 IR Inten    --      3.8332                 0.7133                 2.8664

                     10                     11                     12
                      A                      A                      A
 Frequencies --    180.1599               187.0226               211.0425
 Red. masses --      2.3644                 2.2810                 1.4449
 Frc consts  --      0.0452                 0.0470                 0.0379
 IR Inten    --      0.8053                 2.0525                 1.3613

                     13                     14                     15
                      A                      A                      A
 Frequencies --    225.5679               245.0992               271.9857
 Red. masses --      1.5332                 2.5905                 3.1218
 Frc consts  --      0.0460                 0.0917                 0.1361
 IR Inten    --      8.8271                 7.5474                15.7956

                     16                     17                     18
                      A                      A                      A
 Frequencies --    275.7539               286.4552               298.4236
 Red. masses --      3.3897                 3.7652                 3.2996
 Frc consts  --      0.1519                 0.1820                 0.1731
 IR Inten    --      3.5690                 2.2319                 2.0326

                     19                     20                     21
                      A                      A                      A
 Frequencies --    319.1868               369.6789               414.4623
 Red. masses --      4.3385                 3.9316                 3.9135
 Frc consts  --      0.2604                 0.3166                 0.3961
 IR Inten    --      1.0872                 4.2110                 3.5434

                     22                     23                     24
                      A                      A                      A
 Frequencies --    421.9735               458.2909               521.5916
 Red. masses --      4.3742                 4.0085                 3.7951
 Frc consts  --      0.4589                 0.4960                 0.6083
 IR Inten    --      5.8648                 4.5370                39.3626

                     25                     26                     27
                      A                      A                      A
 Frequencies --    554.3811               566.8139               662.6099
 Red. masses --      4.0009                 3.0810                 4.0506
 Frc consts  --      0.7245                 0.5832                 1.0478
 IR Inten    --     21.6467                 8.0451                23.6467

                     28                     29                     30
                      A                      A                      A
 Frequencies --    731.8646               758.8279               849.9021
 Red. masses --      4.6486                 4.3960                 1.9972
 Frc consts  --      1.4670                 1.4914                 0.8500
 IR Inten    --     55.2438                73.9531                13.5367

                     31                     32                     33
                      A                      A                      A
 Frequencies --    923.3993               936.5120               962.4924
 Red. masses --      3.1032                 4.3595                 3.4700
 Frc consts  --      1.5589                 2.2527                 1.8940
 IR Inten    --     15.3204                15.0949                10.7387

                     34                     35                     36
                      A                      A                      A
 Frequencies --    984.0900              1025.1333              1039.6789
 Red. masses --      3.5812                 3.0576                 3.2090
 Frc consts  --      2.0434                 1.8932                 2.0437
 IR Inten    --     48.2881                 9.5658                54.2041

                     37                     38                     39
                      A                      A                      A
 Frequencies --   1057.3571              1093.2731              1104.0816
 Red. masses --      2.4679                 3.1536                 3.1084
 Frc consts  --      1.6256                 2.2208                 2.2325
 IR Inten    --     49.1004                73.9983                52.1172

                     40                     41                     42
                      A                      A                      A
 Frequencies --   1131.5379              1145.7471              1154.1552
 Red. masses --      2.8374                 3.7258                 3.6326
 Frc consts  --      2.1405                 2.8817                 2.8510
 IR Inten    --     98.4119               177.1366               122.2640

                     43                     44                     45
                      A                      A                      A
 Frequencies --   1161.1938              1165.9686              1175.1356
 Red. masses --      3.2219                 2.5148                 1.2988
 Frc consts  --      2.5596                 2.0143                 1.0567
 IR Inten    --    171.9822                88.6949                 3.8839

                     46                     47                     48
                      A                      A                      A
 Frequencies --   1182.9060              1182.9489              1188.9273
 Red. masses --      1.2961                 1.2892                 1.3101
 Frc consts  --      1.0685                 1.0630                 1.0911
 IR Inten    --      5.5012                 7.3490                 3.8047

                     49                     50                     51
                      A                      A                      A
 Frequencies --   1215.2493              1226.0601              1228.3103
 Red. masses --      1.5222                 1.6476                 1.7397
 Frc consts  --      1.3245                 1.4593                 1.5464
 IR Inten    --     79.0216                76.3718                26.6985

                     52                     53                     54
                      A                      A                      A
 Frequencies --   1231.4893              1254.8819              1279.2395
 Red. masses --      1.5821                 1.4317                 1.2558
 Frc consts  --      1.4136                 1.3283                 1.2108
 IR Inten    --     23.7532                 6.2963                61.2164

                     55                     56                     57
                      A                      A                      A
 Frequencies --   1299.9475              1325.0570              1340.8696
 Red. masses --      1.3183                 1.3174                 1.2637
 Frc consts  --      1.3126                 1.3629                 1.3387
 IR Inten    --     56.8262                17.5291                42.4302

                     58                     59                     60
                      A                      A                      A
 Frequencies --   1351.3962              1401.7236              1410.4565
 Red. masses --      1.2974                 1.3308                 1.2909
 Frc consts  --      1.3960                 1.5406                 1.5131
 IR Inten    --      0.3060                20.4550                18.3511

                     61                     62                     63
                      A                      A                      A
 Frequencies --   1419.9084              1433.0907              1445.6086
 Red. masses --      1.5731                 1.3788                 1.2196
 Frc consts  --      1.8687                 1.6684                 1.5017
 IR Inten    --      9.1397                30.7121                32.0200

                     64                     65                     66
                      A                      A                      A
 Frequencies --   1495.8159              1496.8494              1498.9941
 Red. masses --      1.1502                 1.1416                 1.1423
 Frc consts  --      1.5163                 1.5070                 1.5123
 IR Inten    --      0.0831                 6.8454                 0.3804

                     67                     68                     69
                      A                      A                      A
 Frequencies --   1500.9527              1509.2164              1510.5394
 Red. masses --      1.1230                 1.0460                 1.0518
 Frc consts  --      1.4906                 1.4037                 1.4140
 IR Inten    --      0.7239                 9.3908                10.3185

                     70                     71                     72
                      A                      A                      A
 Frequencies --   1512.0584              1519.1313              1522.0903
 Red. masses --      1.0647                 1.0622                 1.0567
 Frc consts  --      1.4342                 1.4442                 1.4424
 IR Inten    --      4.3880                17.8227                16.4575

                     73                     74                     75
                      A                      A                      A
 Frequencies --   1522.8512              1530.8727              1538.5463
 Red. masses --      1.0542                 1.0513                 1.0948
 Frc consts  --      1.4404                 1.4517                 1.5268
 IR Inten    --     13.6648                12.6816                 8.3556

                     76                     77                     78
                      A                      A                      A
 Frequencies --   1540.8212              1658.7425              2957.8470
 Red. masses --      1.0516                 7.4449                 1.0775
 Frc consts  --      1.4710                12.0688                 5.5543
 IR Inten    --      9.0041               323.4105                23.8378

                     79                     80                     81
                      A                      A                      A
 Frequencies --   3018.5905              3025.9521              3043.9492
 Red. masses --      1.0482                 1.0424                 1.0362
 Frc consts  --      5.6276                 5.6234                 5.6566
 IR Inten    --     36.0776                62.9212                55.7245

                     82                     83                     84
                      A                      A                      A
 Frequencies --   3044.7502              3050.9571              3059.2011
 Red. masses --      1.0374                 1.0351                 1.1067
 Frc consts  --      5.6663                 5.6771                 6.1023
 IR Inten    --     15.7277                59.2864                49.6726

                     85                     86                     87
                      A                      A                      A
 Frequencies --   3065.9190              3080.3665              3106.2896
 Red. masses --      1.0832                 1.1070                 1.0862
 Frc consts  --      5.9990                 6.1889                 6.1753
 IR Inten    --     18.5535                47.4488                12.1362

                     88                     89                     90
                      A                      A                      A
 Frequencies --   3112.0003              3121.3266              3128.5889
 Red. masses --      1.1013                 1.1012                 1.1042
 Frc consts  --      6.2837                 6.3210                 6.3676
 IR Inten    --     62.5609                38.1879                29.3048

                     91                     92                     93
                      A                      A                      A
 Frequencies --   3157.6307              3160.1463              3162.9560
 Red. masses --      1.0873                 1.1001                 1.1041
 Frc consts  --      6.3875                 6.4730                 6.5080
 IR Inten    --      0.6154                25.3378                25.9626

                     94                     95                     96
                      A                      A                      A
 Frequencies --   3167.8586              3177.1849              3200.2279
 Red. masses --      1.1017                 1.1038                 1.0943
 Frc consts  --      6.5142                 6.5649                 6.6032
 IR Inten    --     16.9128                18.3125                 1.4699

 - Thermochemistry -
 -------------------
 Temperature   298.150 Kelvin.  Pressure   1.00000 Atm.
 Atom     1 has atomic number  6 and mass  12.00000

 Molecular mass:   219.12325 amu.
 Principal axes and moments of inertia in atomic units:
                           1         2         3
     Eigenvalues --  2406.720224104.549695284.44577
           X            0.99997   0.00470  -0.00633
           Y           -0.00468   0.99998   0.00306
           Z            0.00634  -0.00303   0.99998
 This molecule is an asymmetric top.
 Rotational symmetry number  1.
 Warning -- assumption of classical behavior for rotation
           may cause significant error
 Rotational temperatures (Kelvin)      0.03599     0.02110     0.01639
 Rotational constants (GHZ):           0.74988     0.43969     0.34152
 Zero-point vibrational energy     773758.6 (Joules/Mol)
                                  184.93273 (Kcal/Mol)
 Warning -- explicit consideration of  26 degrees of freedom as
           vibrations may cause significant error
 Vibrational temperatures:     45.29    76.66    97.83   123.55   141.06
          (Kelvin)            147.27   167.50   204.07   254.54   259.21
                              269.08   303.64   324.54   352.64   391.33
                              396.75   412.15   429.37   459.24   531.89
                              596.32   607.13   659.38   750.45   797.63
                              815.52   953.35  1052.99  1091.78  1222.82
                             1328.57  1347.43  1384.81  1415.89  1474.94
                             1495.87  1521.30  1572.98  1588.53  1628.03
                             1648.47  1660.57  1670.70  1677.57  1690.76
                             1701.94  1702.00  1710.60  1748.47  1764.03
                             1767.26  1771.84  1805.50  1840.54  1870.33
                             1906.46  1929.21  1944.36  2016.77  2029.33
                             2042.93  2061.90  2079.91  2152.15  2153.63
                             2156.72  2159.54  2171.43  2173.33  2175.51
                             2185.69  2189.95  2191.04  2202.58  2213.62
                             2216.90  2386.56  4255.68  4343.08  4353.67
                             4379.56  4380.72  4389.65  4401.51  4411.17
                             4431.96  4469.26  4477.47  4490.89  4501.34
                             4543.13  4546.75  4550.79  4557.84  4571.26
                             4604.41

 Zero-point correction=                           0.294709 (Hartree/Particle)
 Thermal correction to Energy=                    0.311988
 Thermal correction to Enthalpy=                  0.312932
 Thermal correction to Gibbs Free Energy=         0.249372
 Sum of electronic and zero-point Energies=           -768.033148
 Sum of electronic and thermal Energies=              -768.015869
 Sum of electronic and thermal Enthalpies=            -768.014925
 Sum of electronic and thermal Free Energies=         -768.078486

                     E (Thermal)             CV                S
                      KCal/Mol        Cal/Mol-Kelvin    Cal/Mol-Kelvin
 Total                  195.775             61.629            133.774
 Electronic               0.000              0.000              0.000
 Translational            0.889              2.981             42.056
 Rotational               0.889              2.981             32.323
 Vibrational            193.998             55.667             59.395
 Vibration     1          0.594              1.983              5.734
 Vibration     2          0.596              1.976              4.692
 Vibration     3          0.598              1.969              4.211
 Vibration     4          0.601              1.959              3.752
 Vibration     5          0.603              1.951              3.493
 Vibration     6          0.604              1.947              3.409
 Vibration     7          0.608              1.936              3.159
 Vibration     8          0.615              1.911              2.779
 Vibration     9          0.628              1.871              2.361
 Vibration    10          0.629              1.867              2.327
 Vibration    11          0.632              1.858              2.257
 Vibration    12          0.643              1.824              2.035
 Vibration    13          0.650              1.802              1.914
 Vibration    14          0.660              1.771              1.766
 Vibration    15          0.675              1.725              1.584
 Vibration    16          0.677              1.718              1.560
 Vibration    17          0.684              1.699              1.495
 Vibration    18          0.692              1.677              1.426
 Vibration    19          0.705              1.637              1.314
 Vibration    20          0.742              1.535              1.081
 Vibration    21          0.778              1.439              0.911
 Vibration    22          0.784              1.422              0.885
 Vibration    23          0.816              1.343              0.771
 Vibration    24          0.877              1.202              0.606
 Vibration    25          0.910              1.130              0.535
 Vibration    26          0.923              1.103              0.510

                           ! Non-Optimized Parameters !
 Normal termination of Gaussian 16 at Fri May 24 08:53:39 2019.
