 Gaussian 16, Revision A.03,
 Gaussian 16:  ES64L-G16RevA.03 25-Dec-2016

 -------------------------------------------------------------------
 #p b3lyp 6-31g* opt freq=noraman scrf=(pcm,solvent=tetrahydrofuran)
 -------------------------------------------------------------------

 -----
 title
 -----
 Symbolic Z-matrix:
 Charge =  1 Multiplicity = 1

 SCF Done:  E(RB3LYP) =  -768.324734500     A.U. after   14 cycles
 Optimization completed.
    -- Stationary point found.
 Normal termination of Gaussian 16 at Fri May 24 08:38:42 2019.

 --------------------------------------------------------------------
 #P Geom=AllCheck Guess=TCheck SCRF=Check GenChk RB3LYP/6-31G(d) Freq
 --------------------------------------------------------------------

 Structure from the checkpoint file:  "/scratch/Gau-60772.chk"
 -----
 title
 -----
 Charge =  1 Multiplicity = 1

                         Standard orientation:
 ---------------------------------------------------------------------
 Center     Atomic      Atomic             Coordinates (Angstroms)
 Number     Number       Type             X           Y           Z
 ---------------------------------------------------------------------
      1          6           0       -1.264442    0.283736   -0.323597
      2          6           0       -1.432892   -1.041952    0.472700
      3          6           0       -0.300676   -1.967177    0.183711
      4          6           0        1.251581   -0.163693   -0.379490
      5          6           0        0.145150    0.851303   -0.034925
      6          1           0       -0.435769   -3.047723    0.268760
      7          1           0       -1.287957   -0.812500    1.545566
      8          1           0       -1.312203    0.071794   -1.396405
      9          1           0        1.420279   -0.172281   -1.457615
     10          1           0        0.226496    1.137176    1.024478
     11          8           0        0.860175   -1.605636   -0.124944
     12          8           0       -2.666705   -1.690374    0.402780
     13          8           0       -2.310281    1.191409   -0.094087
     14          8           0        0.450841    1.940482   -0.875541
     15          6           0        2.557367    0.055903    0.356750
     16          1           0        2.433084   -0.162119    1.430100
     17          1           0        2.794866    1.127141    0.257246
     18          8           0        3.538332   -0.758821   -0.231703
     19          6           0       -3.208972   -1.887683   -0.914100
     20          1           0       -4.101914   -2.496396   -0.770533
     21          1           0       -3.485595   -0.933465   -1.371593
     22          1           0       -2.509148   -2.427382   -1.565687
     23          6           0       -2.672841    1.476258    1.261338
     24          1           0       -1.837368    1.882659    1.843360
     25          1           0       -3.456109    2.232897    1.198523
     26          1           0       -3.078507    0.588435    1.760151
     27          6           0        0.118931    3.237744   -0.368777
     28          1           0        0.568976    3.400168    0.619207
     29          1           0        0.542010    3.951419   -1.077812
     30          1           0       -0.964301    3.376311   -0.311456
     31          6           0        4.814489   -0.609383    0.380219
     32          1           0        5.179092    0.423901    0.294602
     33          1           0        4.782748   -0.889034    1.442796
     34          1           0        5.496258   -1.277826   -0.148694
 ---------------------------------------------------------------------

 SCF Done:  E(RB3LYP) =  -768.324734500     A.U. after    1 cycles

 The electronic state is 1-A.
 Alpha  occ. eigenvalues --  -19.33141 -19.21016 -19.19894 -19.19536 -19.18273
 Alpha  occ. eigenvalues --  -10.39908 -10.32300 -10.32235 -10.30117 -10.29911
 Alpha  occ. eigenvalues --  -10.27944 -10.26056 -10.25596 -10.25074 -10.24622
 Alpha  occ. eigenvalues --   -1.21802  -1.09980  -1.08383  -1.06868  -1.06655
 Alpha  occ. eigenvalues --   -0.87533  -0.86094  -0.77999  -0.75154  -0.74391
 Alpha  occ. eigenvalues --   -0.71740  -0.69057  -0.68086  -0.65443  -0.62745
 Alpha  occ. eigenvalues --   -0.60699  -0.58867  -0.55740  -0.54865  -0.54312
 Alpha  occ. eigenvalues --   -0.52784  -0.51921  -0.51116  -0.50332  -0.49374
 Alpha  occ. eigenvalues --   -0.48776  -0.47867  -0.46629  -0.45685  -0.45453
 Alpha  occ. eigenvalues --   -0.44282  -0.43392  -0.42317  -0.42055  -0.40613
 Alpha  occ. eigenvalues --   -0.40237  -0.37249  -0.36107  -0.35444  -0.35147
 Alpha  occ. eigenvalues --   -0.32795  -0.31541  -0.28981  -0.28151
 Alpha virt. eigenvalues --   -0.15388  -0.00238   0.04454   0.04688   0.06554
 Alpha virt. eigenvalues --    0.07054   0.07174   0.08730   0.09351   0.10284
 Alpha virt. eigenvalues --    0.11234   0.11579   0.11841   0.12487   0.13313

 Mulliken charges:
               1
     1  C    0.119384
     2  C    0.013445
     3  C    0.287538
     4  C    0.064012
     5  C    0.075830
     6  H    0.282689
     7  H    0.252352
     8  H    0.194595
     9  H    0.247590
    10  H    0.174695
    11  O   -0.300202
    12  O   -0.469524
    13  O   -0.474254
    14  O   -0.483979
    15  C   -0.021837
    16  H    0.166447
    17  H    0.184404
    18  O   -0.479695
    19  C   -0.243272
    20  H    0.198635
    21  H    0.187334
    22  H    0.164257
    23  C   -0.247998
    24  H    0.163627
    25  H    0.194789
    26  H    0.176410
    27  C   -0.226905
    28  H    0.160809
    29  H    0.184748
    30  H    0.176511
    31  C   -0.212563
    32  H    0.156500
    33  H    0.154189
    34  H    0.179440
 Sum of Mulliken charges =   1.00000

 Dipole moment (field-independent basis, Debye):
    X=             -0.1067    Y=             -2.4190    Z=              2.6006  Tot=              3.5534
 Quadrupole moment (field-independent basis, Debye-Ang):
   XX=            -67.2894   YY=            -67.5752   ZZ=            -82.2926
   XY=              4.9823   XZ=              5.0684   YZ=              5.1850

  Exact polarizability: 165.594   1.010 152.270  -3.998   1.828 116.411
 Approx polarizability: 175.176  -1.994 169.367  -7.514   0.091 146.888

                      1                      2                      3
                      A                      A                      A
 Frequencies --     42.8443                64.1182                69.1418
 Red. masses --      3.9484                 3.2558                 3.8027
 Frc consts  --      0.0043                 0.0079                 0.0107
 IR Inten    --      0.6177                 1.8100                 0.1519

                      4                      5                      6
                      A                      A                      A
 Frequencies --     90.0334                98.8379               102.8933
 Red. masses --      2.4920                 2.3427                 2.3971
 Frc consts  --      0.0119                 0.0135                 0.0150
 IR Inten    --      3.5559                 5.1931                 4.1987

                      7                      8                      9
                      A                      A                      A
 Frequencies --    124.6332               144.2508               170.3947
 Red. masses --      2.4607                 2.1721                 1.4490
 Frc consts  --      0.0225                 0.0266                 0.0248
 IR Inten    --      8.7479                 6.2276                 1.2936

                     10                     11                     12
                      A                      A                      A
 Frequencies --    175.4466               189.8988               220.1107
 Red. masses --      2.4659                 1.6906                 1.8781
 Frc consts  --      0.0447                 0.0359                 0.0536
 IR Inten    --      1.1497                 6.8223                 5.8345

                     13                     14                     15
                      A                      A                      A
 Frequencies --    225.2091               241.9587               248.8934
 Red. masses --      1.3446                 2.7508                 1.8622
 Frc consts  --      0.0402                 0.0949                 0.0680
 IR Inten    --      3.0195                 1.2835                11.7028

                     16                     17                     18
                      A                      A                      A
 Frequencies --    278.9330               297.7869               304.8030
 Red. masses --      3.3845                 3.1268                 4.2284
 Frc consts  --      0.1551                 0.1634                 0.2315
 IR Inten    --      7.9564                 8.7281                 4.2442

                     19                     20                     21
                      A                      A                      A
 Frequencies --    341.6474               366.4764               398.7833
 Red. masses --      3.8057                 3.9901                 4.3024
 Frc consts  --      0.2617                 0.3157                 0.4031
 IR Inten    --      2.5734                10.5056                 2.8730

                     22                     23                     24
                      A                      A                      A
 Frequencies --    416.5871               480.1921               537.9505
 Red. masses --      4.5478                 3.9449                 3.9188
 Frc consts  --      0.4650                 0.5359                 0.6682
 IR Inten    --      2.8285                15.1649                12.7902

                     25                     26                     27
                      A                      A                      A
 Frequencies --    556.2492               581.3864               611.9926
 Red. masses --      3.4438                 3.5091                 3.3387
 Frc consts  --      0.6278                 0.6988                 0.7368
 IR Inten    --     17.4896                 4.3810                41.8125

                     28                     29                     30
                      A                      A                      A
 Frequencies --    716.3771               726.9807               836.4776
 Red. masses --      4.2471                 3.8281                 2.3314
 Frc consts  --      1.2842                 1.1920                 0.9611
 IR Inten    --     55.2122                79.2860                14.4423

                     31                     32                     33
                      A                      A                      A
 Frequencies --    929.8913               948.3997               976.6608
 Red. masses --      4.5528                 3.2061                 3.2228
 Frc consts  --      2.3195                 1.6991                 1.8112
 IR Inten    --     50.3492                 0.9555                26.8419

                     34                     35                     36
                      A                      A                      A
 Frequencies --    984.5282              1009.5631              1058.0156
 Red. masses --      4.6071                 3.1710                 2.9467
 Frc consts  --      2.6311                 1.9042                 1.9434
 IR Inten    --     65.7773                36.2709                14.0464

                     37                     38                     39
                      A                      A                      A
 Frequencies --   1069.0907              1095.2660              1102.3199
 Red. masses --      2.8756                 2.5698                 3.2806
 Frc consts  --      1.9365                 1.8163                 2.3486
 IR Inten    --     73.3477                28.5269                42.1906

                     40                     41                     42
                      A                      A                      A
 Frequencies --   1139.3726              1153.9044              1160.9111
 Red. masses --      3.0121                 3.2375                 2.7768
 Frc consts  --      2.3038                 2.5398                 2.2049
 IR Inten    --     86.2092               198.6220                90.9193

                     43                     44                     45
                      A                      A                      A
 Frequencies --   1168.8679              1174.4463              1181.2094
 Red. masses --      3.1123                 2.0456                 1.2858
 Frc consts  --      2.5053                 1.6624                 1.0570
 IR Inten    --    262.6493                10.1476                 5.8687

                     46                     47                     48
                      A                      A                      A
 Frequencies --   1183.4539              1188.6775              1189.8023
 Red. masses --      1.3281                 1.6145                 1.4263
 Frc consts  --      1.0959                 1.3441                 1.1896
 IR Inten    --     14.7795                48.2206                 3.3011

                     49                     50                     51
                      A                      A                      A
 Frequencies --   1222.9503              1228.5618              1233.0713
 Red. masses --      1.5471                 1.7731                 1.6859
 Frc consts  --      1.3633                 1.5768                 1.5103
 IR Inten    --     58.9602                56.6264                 8.7532

                     52                     53                     54
                      A                      A                      A
 Frequencies --   1239.1495              1252.2585              1279.3126
 Red. masses --      1.7319                 1.5900                 1.3640
 Frc consts  --      1.5669                 1.4690                 1.3153
 IR Inten    --     66.6882                33.6157                24.1485

                     55                     56                     57
                      A                      A                      A
 Frequencies --   1291.4894              1331.1505              1350.5530
 Red. masses --      1.1965                 1.2861                 1.1828
 Frc consts  --      1.1759                 1.3427                 1.2712
 IR Inten    --     50.3643                17.2768                49.9698

                     58                     59                     60
                      A                      A                      A
 Frequencies --   1374.7886              1390.6873              1404.4826
 Red. masses --      1.1811                 1.3647                 1.3025
 Frc consts  --      1.3152                 1.5551                 1.5137
 IR Inten    --      3.0307                 4.2416                 5.4166

                     61                     62                     63
                      A                      A                      A
 Frequencies --   1413.8345              1446.3461              1455.5696
 Red. masses --      1.3371                 1.2549                 1.3675
 Frc consts  --      1.5747                 1.5467                 1.7070
 IR Inten    --     23.9492                16.2139                45.1315

                     64                     65                     66
                      A                      A                      A
 Frequencies --   1496.1715              1497.3615              1498.2930
 Red. masses --      1.1401                 1.1511                 1.1553
 Frc consts  --      1.5036                 1.5206                 1.5280
 IR Inten    --      0.5188                 1.9546                 2.0529

                     67                     68                     69
                      A                      A                      A
 Frequencies --   1503.8527              1509.2881              1509.3626
 Red. masses --      1.1313                 1.0683                 1.0479
 Frc consts  --      1.5075                 1.4338                 1.4066
 IR Inten    --      1.3515                 7.3199                 8.8237

                     70                     71                     72
                      A                      A                      A
 Frequencies --   1517.3154              1518.5123              1523.0080
 Red. masses --      1.0497                 1.0493                 1.0584
 Frc consts  --      1.4238                 1.4256                 1.4464
 IR Inten    --     11.6657                 4.8497                20.5699

                     73                     74                     75
                      A                      A                      A
 Frequencies --   1526.3047              1532.6424              1535.8020
 Red. masses --      1.0515                 1.0494                 1.0495
 Frc consts  --      1.4432                 1.4524                 1.4585
 IR Inten    --     15.4077                20.7651                13.4375

                     76                     77                     78
                      A                      A                      A
 Frequencies --   1541.4927              1651.3611              2970.1462
 Red. masses --      1.1015                 6.8977                 1.0782
 Frc consts  --      1.5421                11.0826                 5.6043
 IR Inten    --      4.0436               239.6456                28.0031

                     79                     80                     81
                      A                      A                      A
 Frequencies --   3003.3478              3018.7002              3021.9403
 Red. masses --      1.0534                 1.0372                 1.0828
 Frc consts  --      5.5983                 5.5685                 5.8258
 IR Inten    --     36.9388                60.8846                20.8705

                     82                     83                     84
                      A                      A                      A
 Frequencies --   3036.6050              3039.3295              3043.0680
 Red. masses --      1.0421                 1.1050                 1.0364
 Frc consts  --      5.6613                 6.0141                 5.6548
 IR Inten    --     39.0277                47.0597                14.2340

                     85                     86                     87
                      A                      A                      A
 Frequencies --   3044.9270              3072.4469              3108.9013
 Red. masses --      1.0366                 1.1068                 1.0905
 Frc consts  --      5.6628                 6.1558                 6.2097
 IR Inten    --     77.5978                57.4500                13.8315

                     88                     89                     90
                      A                      A                      A
 Frequencies --   3109.9638              3124.3231              3126.1014
 Red. masses --      1.1019                 1.0969                 1.0981
 Frc consts  --      6.2794                 6.3086                 6.3229
 IR Inten    --     47.7379                29.8671                37.4196

                     91                     92                     93
                      A                      A                      A
 Frequencies --   3154.8090              3159.9344              3168.3809
 Red. masses --      1.0865                 1.0993                 1.1013
 Frc consts  --      6.3714                 6.4673                 6.5139
 IR Inten    --      0.6866                28.5238                18.0396

                     94                     95                     96
                      A                      A                      A
 Frequencies --   3168.7065              3181.9993              3192.8948
 Red. masses --      1.1047                 1.1033                 1.0942
 Frc consts  --      6.5352                 6.5820                 6.5721
 IR Inten    --     21.2980                15.0667                 2.1559

 - Thermochemistry -
 -------------------
 Temperature   298.150 Kelvin.  Pressure   1.00000 Atm.
 Atom     1 has atomic number  6 and mass  12.00000

 Molecular mass:   219.12325 amu.
 Principal axes and moments of inertia in atomic units:
                           1         2         3
     Eigenvalues --  2165.661144603.898156180.49638
           X            0.99996   0.00468   0.00773
           Y           -0.00484   0.99976   0.02118
           Z           -0.00763  -0.02122   0.99975
 This molecule is an asymmetric top.
 Rotational symmetry number  1.
 Warning -- assumption of classical behavior for rotation
           may cause significant error
 Rotational temperatures (Kelvin)      0.03999     0.01881     0.01401
 Rotational constants (GHZ):           0.83334     0.39200     0.29201
 Zero-point vibrational energy     773966.9 (Joules/Mol)
                                  184.98254 (Kcal/Mol)
 Warning -- explicit consideration of  27 degrees of freedom as
           vibrations may cause significant error
 Vibrational temperatures:     61.64    92.25    99.48   129.54   142.21
          (Kelvin)            148.04   179.32   207.54   245.16   252.43
                              273.22   316.69   324.03   348.12   358.10
                              401.32   428.45   438.54   491.55   527.28
                              573.76   599.38   690.89   773.99   800.32
                              836.49   880.52  1030.71  1045.96  1203.50
                             1337.91  1364.54  1405.20  1416.52  1452.54
                             1522.25  1538.18  1575.84  1585.99  1639.30
                             1660.21  1670.29  1681.74  1689.77  1699.50
                             1702.73  1710.24  1711.86  1759.55  1767.63
                             1774.11  1782.86  1801.72  1840.65  1858.17
                             1915.23  1943.14  1978.01  2000.89  2020.74
                             2034.19  2080.97  2094.24  2152.66  2154.37
                             2155.71  2163.71  2171.53  2171.64  2183.08
                             2184.80  2191.27  2196.01  2205.13  2209.68
                             2217.86  2375.94  4273.38  4321.15  4343.24
                             4347.90  4369.00  4372.92  4378.30  4380.97
                             4420.57  4473.02  4474.54  4495.20  4497.76
                             4539.07  4546.44  4558.59  4559.06  4578.19
                             4593.86

 Zero-point correction=                           0.294788 (Hartree/Particle)
 Thermal correction to Energy=                    0.311989
 Thermal correction to Enthalpy=                  0.312933
 Thermal correction to Gibbs Free Energy=         0.249897
 Sum of electronic and zero-point Energies=           -768.029946
 Sum of electronic and thermal Energies=              -768.012746
 Sum of electronic and thermal Enthalpies=            -768.011801
 Sum of electronic and thermal Free Energies=         -768.074837

                     E (Thermal)             CV                S
                      KCal/Mol        Cal/Mol-Kelvin    Cal/Mol-Kelvin
 Total                  195.776             61.592            132.670
 Electronic               0.000              0.000              0.000
 Translational            0.889              2.981             42.056
 Rotational               0.889              2.981             32.488
 Vibrational            193.999             55.631             58.125
 Vibration     1          0.595              1.980              5.123
 Vibration     2          0.597              1.971              4.326
 Vibration     3          0.598              1.969              4.178
 Vibration     4          0.602              1.956              3.659
 Vibration     5          0.604              1.950              3.477
 Vibration     6          0.605              1.947              3.399
 Vibration     7          0.610              1.928              3.027
 Vibration     8          0.616              1.909              2.747
 Vibration     9          0.625              1.879              2.431
 Vibration    10          0.627              1.873              2.376
 Vibration    11          0.633              1.854              2.229
 Vibration    12          0.647              1.810              1.958
 Vibration    13          0.650              1.803              1.917
 Vibration    14          0.658              1.776              1.788
 Vibration    15          0.662              1.765              1.738
 Vibration    16          0.679              1.713              1.540
 Vibration    17          0.691              1.678              1.429
 Vibration    18          0.696              1.665              1.390
 Vibration    19          0.721              1.592              1.204
 Vibration    20          0.739              1.541              1.095
 Vibration    21          0.765              1.473              0.967
 Vibration    22          0.780              1.434              0.904
 Vibration    23          0.837              1.294              0.710
 Vibration    24          0.893              1.166              0.570
 Vibration    25          0.912              1.126              0.531
 Vibration    26          0.938              1.072              0.483
 Vibration    27          0.971              1.006              0.429

 Optimization completed.
    -- Stationary point found.
 Normal termination of Gaussian 16 at Fri May 24 09:26:50 2019.
