 Gaussian 16, Revision A.03,
 Gaussian 16:  ES64L-G16RevA.03 25-Dec-2016

 -------------------------------------------------------------------
 #p b3lyp 6-31g* opt freq=noraman scrf=(pcm,solvent=tetrahydrofuran)
 -------------------------------------------------------------------

 -----
 title
 -----
 Symbolic Z-matrix:
 Charge =  1 Multiplicity = 1

 SCF Done:  E(RB3LYP) =  -768.331074380     A.U. after   14 cycles
 Optimization completed.
    -- Stationary point found.
 Normal termination of Gaussian 16 at Fri May 24 08:34:58 2019.

 --------------------------------------------------------------------
 #P Geom=AllCheck Guess=TCheck SCRF=Check GenChk RB3LYP/6-31G(d) Freq
 --------------------------------------------------------------------

 Structure from the checkpoint file:  "/scratch/Gau-192576.chk"
 -----
 title
 -----
 Charge =  1 Multiplicity = 1

                         Standard orientation:
 ---------------------------------------------------------------------
 Center     Atomic      Atomic             Coordinates (Angstroms)
 Number     Number       Type             X           Y           Z
 ---------------------------------------------------------------------
      1          6           0        1.085441    0.380053   -0.042021
      2          6           0        0.650623   -1.088202    0.283719
      3          6           0       -0.248150   -1.039928    1.468851
      4          6           0       -1.359355    0.940083    0.656972
      5          6           0       -0.186113    1.202024   -0.330548
      6          1           0       -0.150009   -1.765345    2.278457
      7          1           0        0.077285   -1.457664   -0.580965
      8          1           0        1.633257    0.768772    0.826537
      9          1           0       -1.560407    1.818975    1.267064
     10          1           0       -0.518843    0.883025   -1.322120
     11          8           0       -1.057472   -0.105338    1.702267
     12          8           0        1.765327   -1.876851    0.587002
     13          8           0        1.873495    0.413376   -1.195404
     14          8           0        0.022119    2.590696   -0.460722
     15          6           0       -2.634011    0.454733   -0.012095
     16          1           0       -2.961862    1.244126   -0.705988
     17          1           0       -3.424199    0.306202    0.737600
     18          8           0       -2.323725   -0.747311   -0.679900
     19          6           0        1.696987   -3.224154    0.099308
     20          1           0        1.568730   -3.234164   -0.989695
     21          1           0        2.646153   -3.690362    0.364738
     22          1           0        0.875304   -3.779005    0.568640
     23          6           0        3.289696    0.404275   -0.983327
     24          1           0        3.615507   -0.524995   -0.507706
     25          1           0        3.740426    0.491010   -1.973481
     26          1           0        3.598406    1.260503   -0.369924
     27          6           0        0.693888    3.263737    0.604253
     28          1           0        0.574732    4.329642    0.403358
     29          1           0        0.255945    3.040528    1.586763
     30          1           0        1.763392    3.024596    0.626030
     31          6           0       -3.451640   -1.352120   -1.311741
     32          1           0       -4.227256   -1.600557   -0.575379
     33          1           0       -3.876992   -0.688068   -2.074898
     34          1           0       -3.091717   -2.266809   -1.785206
 ---------------------------------------------------------------------

 SCF Done:  E(RB3LYP) =  -768.331074380     A.U. after    1 cycles

 The electronic state is 1-A.
 Alpha  occ. eigenvalues --  -19.32540 -19.20877 -19.19650 -19.19181 -19.19133
 Alpha  occ. eigenvalues --  -10.39061 -10.32002 -10.31248 -10.29893 -10.29410
 Alpha  occ. eigenvalues --  -10.28342 -10.26013 -10.25364 -10.25307 -10.24741
 Alpha  occ. eigenvalues --   -1.21314  -1.09746  -1.08060  -1.07615  -1.06380
 Alpha  occ. eigenvalues --   -0.86927  -0.85682  -0.77478  -0.75248  -0.73586
 Alpha  occ. eigenvalues --   -0.71458  -0.69126  -0.67876  -0.65733  -0.62417
 Alpha  occ. eigenvalues --   -0.59544  -0.58669  -0.56408  -0.54349  -0.54012
 Alpha  occ. eigenvalues --   -0.52334  -0.51655  -0.51162  -0.50805  -0.48753
 Alpha  occ. eigenvalues --   -0.48300  -0.47933  -0.46586  -0.45993  -0.45536
 Alpha  occ. eigenvalues --   -0.43724  -0.43519  -0.42495  -0.41435  -0.40877
 Alpha  occ. eigenvalues --   -0.39796  -0.37588  -0.36297  -0.36035  -0.34549
 Alpha  occ. eigenvalues --   -0.32127  -0.30250  -0.29932  -0.28792
 Alpha virt. eigenvalues --   -0.14792   0.00356   0.04477   0.05144   0.05989
 Alpha virt. eigenvalues --    0.07023   0.07747   0.08885   0.09923   0.10494
 Alpha virt. eigenvalues --    0.11414   0.11442   0.12247   0.12488   0.12971

 Mulliken charges:
               1
     1  C    0.099166
     2  C    0.036060
     3  C    0.289588
     4  C    0.025333
     5  C    0.116661
     6  H    0.274652
     7  H    0.240105
     8  H    0.179207
     9  H    0.240705
    10  H    0.207858
    11  O   -0.305046
    12  O   -0.475422
    13  O   -0.476190
    14  O   -0.479306
    15  C   -0.034967
    16  H    0.193498
    17  H    0.184110
    18  O   -0.490906
    19  C   -0.232186
    20  H    0.179191
    21  H    0.194904
    22  H    0.169023
    23  C   -0.228233
    24  H    0.173451
    25  H    0.182278
    26  H    0.161821
    27  C   -0.240726
    28  H    0.190848
    29  H    0.156420
    30  H    0.169405
    31  C   -0.213462
    32  H    0.163257
    33  H    0.166475
    34  H    0.182427
 Sum of Mulliken charges =   1.00000

 Dipole moment (field-independent basis, Debye):
    X=             -2.4230    Y=             -2.7394    Z=              4.0576  Tot=              5.4625
 Quadrupole moment (field-independent basis, Debye-Ang):
   XX=            -61.7247   YY=            -66.1483   ZZ=            -81.1457
   XY=              0.0036   XZ=              1.0499   YZ=              4.1297

  Exact polarizability: 159.756  -5.149 156.047  -7.843  -0.952 125.731
 Approx polarizability: 172.763  -7.871 169.273 -10.172  -3.359 157.789

                      1                      2                      3
                      A                      A                      A
 Frequencies --     38.0714                53.1586                77.8152
 Red. masses --      4.0425                 3.6131                 3.1852
 Frc consts  --      0.0035                 0.0060                 0.0114
 IR Inten    --      1.6711                 1.1141                 4.1567

                      4                      5                      6
                      A                      A                      A
 Frequencies --     81.5403               106.9654               111.0233
 Red. masses --      2.9203                 2.0472                 2.1197
 Frc consts  --      0.0114                 0.0138                 0.0154
 IR Inten    --      2.9362                 6.9303                 3.6004

                      7                      8                      9
                      A                      A                      A
 Frequencies --    119.7661               146.1143               155.1512
 Red. masses --      3.2312                 2.7182                 1.3254
 Frc consts  --      0.0273                 0.0342                 0.0188
 IR Inten    --      6.0930                 2.5420                 2.2774

                     10                     11                     12
                      A                      A                      A
 Frequencies --    167.7902               189.4026               204.6352
 Red. masses --      2.6685                 1.3035                 1.3575
 Frc consts  --      0.0443                 0.0276                 0.0335
 IR Inten    --      4.6079                 2.9897                 0.7369

                     13                     14                     15
                      A                      A                      A
 Frequencies --    216.2550               252.0352               261.6872
 Red. masses --      1.4260                 3.4007                 2.7905
 Frc consts  --      0.0393                 0.1273                 0.1126
 IR Inten    --      7.1432                 3.0279                 6.6969

                     16                     17                     18
                      A                      A                      A
 Frequencies --    277.6611               294.9662               301.0907
 Red. masses --      2.8057                 3.3430                 4.6906
 Frc consts  --      0.1274                 0.1714                 0.2505
 IR Inten    --      1.2628                 6.8024                19.7262

                     19                     20                     21
                      A                      A                      A
 Frequencies --    324.2223               385.6212               404.2364
 Red. masses --      3.7982                 3.5651                 5.8925
 Frc consts  --      0.2352                 0.3124                 0.5673
 IR Inten    --      1.3401                 4.1466                 8.3064

                     22                     23                     24
                      A                      A                      A
 Frequencies --    465.7464               474.1764               495.7239
 Red. masses --      4.6898                 3.4224                 3.7366
 Frc consts  --      0.5994                 0.4534                 0.5410
 IR Inten    --      2.0511                23.1259                14.3596

                     25                     26                     27
                      A                      A                      A
 Frequencies --    515.5168               621.5369               665.4338
 Red. masses --      3.5898                 3.0833                 4.3370
 Frc consts  --      0.5621                 0.7018                 1.1315
 IR Inten    --     37.1300                17.1967                 9.0939

                     28                     29                     30
                      A                      A                      A
 Frequencies --    709.1775               775.4582               858.5471
 Red. masses --      4.7125                 4.2288                 2.2204
 Frc consts  --      1.3964                 1.4982                 0.9643
 IR Inten    --     41.4095                61.6666                52.5538

                     31                     32                     33
                      A                      A                      A
 Frequencies --    900.7073               936.3845               974.1433
 Red. masses --      3.2230                 4.2650                 3.3628
 Frc consts  --      1.5406                 2.2033                 1.8802
 IR Inten    --      6.8797                42.0675                31.5022

                     34                     35                     36
                      A                      A                      A
 Frequencies --    996.6617              1012.0646              1039.2655
 Red. masses --      3.0830                 4.1409                 3.7779
 Frc consts  --      1.8043                 2.4990                 2.4041
 IR Inten    --     13.8937                 3.7495               108.0342

                     37                     38                     39
                      A                      A                      A
 Frequencies --   1049.5623              1071.8222              1096.4212
 Red. masses --      4.0223                 2.8315                 2.1699
 Frc consts  --      2.6106                 1.9165                 1.5369
 IR Inten    --    125.6118                67.1638                11.6350

                     40                     41                     42
                      A                      A                      A
 Frequencies --   1121.1722              1141.2209              1154.9493
 Red. masses --      3.0661                 3.6008                 3.5057
 Frc consts  --      2.2708                 2.7630                 2.7552
 IR Inten    --     10.4340               336.7563                49.5801

                     43                     44                     45
                      A                      A                      A
 Frequencies --   1159.3554              1169.4316              1183.7627
 Red. masses --      3.5891                 2.8457                 1.2654
 Frc consts  --      2.8423                 2.2929                 1.0447
 IR Inten    --    187.4288               175.0940                 5.1750

                     46                     47                     48
                      A                      A                      A
 Frequencies --   1184.1269              1187.2664              1190.1315
 Red. masses --      1.3145                 1.2983                 1.3087
 Frc consts  --      1.0860                 1.0783                 1.0922
 IR Inten    --     23.1779                 6.7966                 1.1769

                     49                     50                     51
                      A                      A                      A
 Frequencies --   1217.8848              1225.1502              1229.7720
 Red. masses --      1.5043                 1.6249                 1.7646
 Frc consts  --      1.3146                 1.4370                 1.5723
 IR Inten    --     38.5290                25.4847                74.3446

                     52                     53                     54
                      A                      A                      A
 Frequencies --   1237.0902              1249.0895              1269.7432
 Red. masses --      1.6592                 1.5017                 1.1148
 Frc consts  --      1.4961                 1.3805                 1.0590
 IR Inten    --      8.0385                19.1638                17.7707

                     55                     56                     57
                      A                      A                      A
 Frequencies --   1296.7170              1313.7972              1336.1129
 Red. masses --      1.3558                 1.2360                 1.2715
 Frc consts  --      1.3432                 1.2569                 1.3374
 IR Inten    --     21.4021                19.4878                10.9090

                     58                     59                     60
                      A                      A                      A
 Frequencies --   1363.6323              1379.1219              1407.8884
 Red. masses --      1.2915                 1.3696                 1.3953
 Frc consts  --      1.4149                 1.5348                 1.6295
 IR Inten    --     21.6653                 2.1753                59.5600

                     61                     62                     63
                      A                      A                      A
 Frequencies --   1412.3385              1425.8948              1442.3221
 Red. masses --      1.2801                 1.3230                 1.2529
 Frc consts  --      1.5044                 1.5848                 1.5357
 IR Inten    --     12.2287                39.9933                18.0321

                     64                     65                     66
                      A                      A                      A
 Frequencies --   1496.0678              1498.7919              1499.4247
 Red. masses --      1.1295                 1.1442                 1.1427
 Frc consts  --      1.4895                 1.5143                 1.5137
 IR Inten    --      4.9422                 4.4716                 1.9074

                     67                     68                     69
                      A                      A                      A
 Frequencies --   1501.7601              1507.4978              1508.8207
 Red. masses --      1.1269                 1.0510                 1.0465
 Frc consts  --      1.4974                 1.4073                 1.4037
 IR Inten    --      1.0614                 6.0477                 9.9677

                     70                     71                     72
                      A                      A                      A
 Frequencies --   1517.9907              1518.7624              1520.0001
 Red. masses --      1.0752                 1.0616                 1.0620
 Frc consts  --      1.4598                 1.4427                 1.4457
 IR Inten    --     10.6423                 6.5928                14.6093

                     73                     74                     75
                      A                      A                      A
 Frequencies --   1524.1153              1534.2652              1536.2958
 Red. masses --      1.0506                 1.0574                 1.0562
 Frc consts  --      1.4378                 1.4666                 1.4687
 IR Inten    --     12.2033                17.9088                 5.5987

                     76                     77                     78
                      A                      A                      A
 Frequencies --   1537.9391              1635.4556              3018.6826
 Red. masses --      1.0870                 6.3271                 1.0555
 Frc consts  --      1.5148                 9.9709                 5.6671
 IR Inten    --      8.5034               249.8822                31.0543

                     79                     80                     81
                      A                      A                      A
 Frequencies --   3029.0417              3032.7322              3032.8525
 Red. masses --      1.0770                 1.0413                 1.0364
 Frc consts  --      5.8220                 5.6429                 5.6166
 IR Inten    --      9.5288                34.3157                71.6176

                     82                     83                     84
                      A                      A                      A
 Frequencies --   3039.2691              3041.9598              3054.0045
 Red. masses --      1.0342                 1.0406                 1.0806
 Frc consts  --      5.6287                 5.6731                 5.9380
 IR Inten    --     54.1907                41.3769                31.0550

                     85                     86                     87
                      A                      A                      A
 Frequencies --   3063.2451              3092.5930              3098.5300
 Red. masses --      1.1061                 1.1074                 1.1022
 Frc consts  --      6.1149                 6.2403                 6.2351
 IR Inten    --     37.8834                44.6254                61.1269

                     88                     89                     90
                      A                      A                      A
 Frequencies --   3105.5559              3109.3231              3123.5970
 Red. masses --      1.1073                 1.0859                 1.0979
 Frc consts  --      6.2918                 6.1855                 6.3115
 IR Inten    --     42.2780                 5.5205                37.9707

                     91                     92                     93
                      A                      A                      A
 Frequencies --   3163.6611              3167.3969              3169.4648
 Red. masses --      1.1005                 1.1010                 1.1050
 Frc consts  --      6.4898                 6.5082                 6.5402
 IR Inten    --     23.3168                21.2429                23.3562

                     94                     95                     96
                      A                      A                      A
 Frequencies --   3179.6900              3179.9765              3197.9409
 Red. masses --      1.0882                 1.1016                 1.0937
 Frc consts  --      6.4823                 6.5632                 6.5903
 IR Inten    --      0.9009                18.5901                 1.4184

 - Thermochemistry -
 -------------------
 Temperature   298.150 Kelvin.  Pressure   1.00000 Atm.
 Atom     1 has atomic number  6 and mass  12.00000

 Molecular mass:   219.12325 amu.
 Principal axes and moments of inertia in atomic units:
                           1         2         3
     Eigenvalues --  2829.310423410.906254935.49700
           X            0.99955   0.02786   0.01085
           Y           -0.02813   0.99925   0.02649
           Z           -0.01010  -0.02678   0.99959
 This molecule is an asymmetric top.
 Rotational symmetry number  1.
 Warning -- assumption of classical behavior for rotation
           may cause significant error
 Rotational temperatures (Kelvin)      0.03061     0.02539     0.01755
 Rotational constants (GHZ):           0.63787     0.52911     0.36567
 Zero-point vibrational energy     773758.0 (Joules/Mol)
                                  184.93260 (Kcal/Mol)
 Warning -- explicit consideration of  25 degrees of freedom as
           vibrations may cause significant error
 Vibrational temperatures:     54.78    76.48   111.96   117.32   153.90
          (Kelvin)            159.74   172.32   210.23   223.23   241.41
                              272.51   294.42   311.14   362.62   376.51
                              399.49   424.39   433.20   466.48   554.82
                              581.61   670.11   682.23   713.24   741.71
                              894.25   957.41  1020.35  1115.71  1235.26
                             1295.92  1347.25  1401.57  1433.97  1456.14
                             1495.27  1510.09  1542.11  1577.51  1613.12
                             1641.96  1661.71  1668.05  1682.55  1703.17
                             1703.69  1708.21  1712.33  1752.26  1762.72
                             1769.37  1779.90  1797.16  1826.88  1865.69
                             1890.26  1922.37  1961.96  1984.25  2025.64
                             2032.04  2051.54  2075.18  2152.51  2156.43
                             2157.34  2160.70  2168.95  2170.86  2184.05
                             2185.16  2186.94  2192.86  2207.47  2210.39
                             2212.75  2353.06  4343.21  4358.12  4363.43
                             4363.60  4372.83  4376.70  4394.03  4407.33
                             4449.55  4458.09  4468.20  4473.62  4494.16
                             4551.80  4557.18  4560.15  4574.86  4575.28
                             4601.12

 Zero-point correction=                           0.294709 (Hartree/Particle)
 Thermal correction to Energy=                    0.311939
 Thermal correction to Enthalpy=                  0.312883
 Thermal correction to Gibbs Free Energy=         0.249701
 Sum of electronic and zero-point Energies=           -768.036366
 Sum of electronic and thermal Energies=              -768.019135
 Sum of electronic and thermal Enthalpies=            -768.018191
 Sum of electronic and thermal Free Energies=         -768.081374

                     E (Thermal)             CV                S
                      KCal/Mol        Cal/Mol-Kelvin    Cal/Mol-Kelvin
 Total                  195.745             61.590            132.979
 Electronic               0.000              0.000              0.000
 Translational            0.889              2.981             42.056
 Rotational               0.889              2.981             32.232
 Vibrational            193.967             55.628             58.690
 Vibration     1          0.594              1.982              5.357
 Vibration     2          0.596              1.976              4.696
 Vibration     3          0.599              1.964              3.945
 Vibration     4          0.600              1.962              3.853
 Vibration     5          0.606              1.944              3.323
 Vibration     6          0.607              1.940              3.251
 Vibration     7          0.609              1.933              3.104
 Vibration     8          0.617              1.907              2.722
 Vibration     9          0.620              1.897              2.608
 Vibration    10          0.625              1.882              2.460
 Vibration    11          0.633              1.854              2.234
 Vibration    12          0.640              1.833              2.091
 Vibration    13          0.645              1.816              1.990
 Vibration    14          0.664              1.759              1.716
 Vibration    15          0.669              1.743              1.650
 Vibration    16          0.679              1.715              1.548
 Vibration    17          0.689              1.683              1.445
 Vibration    18          0.693              1.672              1.411
 Vibration    19          0.709              1.627              1.289
 Vibration    20          0.754              1.501              1.017
 Vibration    21          0.769              1.461              0.947
 Vibration    22          0.823              1.326              0.750
 Vibration    23          0.831              1.307              0.726
 Vibration    24          0.851              1.260              0.669
 Vibration    25          0.871              1.216              0.620

                           ! Non-Optimized Parameters !
 Normal termination of Gaussian 16 at Fri May 24 08:53:39 2019.
