 Gaussian 16, Revision A.03,
 Gaussian 16:  ES64L-G16RevA.03 25-Dec-2016

 -------------------------------------------------------------------
 #p b3lyp 6-31g* opt freq=noraman scrf=(pcm,solvent=tetrahydrofuran)
 -------------------------------------------------------------------

 -----
 title
 -----
 Symbolic Z-matrix:
 Charge =  1 Multiplicity = 1

 SCF Done:  E(RB3LYP) =  -768.330874356     A.U. after   13 cycles
 Optimization completed.
    -- Stationary point found.
 Normal termination of Gaussian 16 at Fri May 24 08:35:05 2019.

 --------------------------------------------------------------------
 #P Geom=AllCheck Guess=TCheck SCRF=Check GenChk RB3LYP/6-31G(d) Freq
 --------------------------------------------------------------------

 Structure from the checkpoint file:  "/scratch/Gau-150123.chk"
 -----
 title
 -----
 Charge =  1 Multiplicity = 1

                         Standard orientation:
 ---------------------------------------------------------------------
 Center     Atomic      Atomic             Coordinates (Angstroms)
 Number     Number       Type             X           Y           Z
 ---------------------------------------------------------------------
      1          6           0        0.581095    0.482997    0.706215
      2          6           0        1.522630    0.591218   -0.516551
      3          6           0        0.975520   -0.030563   -1.763862
      4          6           0       -1.040890   -0.883073   -0.713811
      5          6           0       -0.284105   -0.791075    0.605204
      6          1           0        1.575747   -0.019177   -2.673865
      7          1           0        1.708531    1.653292   -0.725806
      8          1           0        1.214991    0.423397    1.599193
      9          1           0       -1.348022   -1.916792   -0.871625
     10          1           0       -1.036712   -0.778824    1.403744
     11          8           0       -0.098862   -0.674840   -1.870675
     12          8           0        2.726160   -0.138353   -0.353360
     13          8           0       -0.286517    1.593245    0.762840
     14          8           0        0.528655   -1.947547    0.648915
     15          6           0       -2.229910    0.052914   -0.942699
     16          1           0       -2.614004   -0.105345   -1.962119
     17          1           0       -1.926882    1.101252   -0.836762
     18          8           0       -3.176156   -0.318573    0.032855
     19          6           0        3.930425    0.605416   -0.606317
     20          1           0        3.985773    1.475948    0.058060
     21          1           0        4.752432   -0.078804   -0.394741
     22          1           0        3.988550    0.934712   -1.649940
     23          6           0        0.255093    2.743787    1.413235
     24          1           0        1.134031    3.136427    0.884261
     25          1           0        0.533018    2.510194    2.448607
     26          1           0       -0.530862    3.500316    1.405766
     27          6           0        0.947699   -2.347537    1.953911
     28          1           0        0.084187   -2.473150    2.619965
     29          1           0        1.452694   -3.306924    1.829530
     30          1           0        1.649600   -1.632658    2.399932
     31          6           0       -4.353292    0.480351   -0.012430
     32          1           0       -5.010219    0.114178    0.778765
     33          1           0       -4.122281    1.539625    0.166629
     34          1           0       -4.862398    0.384262   -0.981567
 ---------------------------------------------------------------------

 SCF Done:  E(RB3LYP) =  -768.330874356     A.U. after    1 cycles

 The electronic state is 1-A.
 Alpha  occ. eigenvalues --  -19.32549 -19.22024 -19.19729 -19.18998 -19.18285
 Alpha  occ. eigenvalues --  -10.39293 -10.31512 -10.31393 -10.29247 -10.28977
 Alpha  occ. eigenvalues --  -10.27334 -10.26448 -10.25621 -10.25024 -10.24554
 Alpha  occ. eigenvalues --   -1.21203  -1.09916  -1.08140  -1.07015  -1.06524
 Alpha  occ. eigenvalues --   -0.86868  -0.85154  -0.77190  -0.74533  -0.74224
 Alpha  occ. eigenvalues --   -0.70788  -0.68984  -0.68191  -0.66198  -0.61556
 Alpha  occ. eigenvalues --   -0.59032  -0.58376  -0.56657  -0.54064  -0.53508
 Alpha  occ. eigenvalues --   -0.52786  -0.51210  -0.50662  -0.49688  -0.49477
 Alpha  occ. eigenvalues --   -0.48246  -0.47624  -0.47112  -0.46091  -0.45906
 Alpha  occ. eigenvalues --   -0.44438  -0.43345  -0.42079  -0.41225  -0.39806
 Alpha  occ. eigenvalues --   -0.39270  -0.37717  -0.36525  -0.35139  -0.34985
 Alpha  occ. eigenvalues --   -0.32696  -0.30377  -0.29320  -0.28518
 Alpha virt. eigenvalues --   -0.14607   0.00792   0.03619   0.04497   0.06771
 Alpha virt. eigenvalues --    0.07881   0.08343   0.09071   0.10083   0.10607
 Alpha virt. eigenvalues --    0.11279   0.11848   0.12283   0.12909   0.13455

 Mulliken charges:
               1
     1  C    0.105236
     2  C    0.040478
     3  C    0.303848
     4  C    0.053966
     5  C    0.076940
     6  H    0.272086
     7  H    0.228426
     8  H    0.188399
     9  H    0.238048
    10  H    0.199911
    11  O   -0.313943
    12  O   -0.455985
    13  O   -0.481765
    14  O   -0.488813
    15  C   -0.016994
    16  H    0.167937
    17  H    0.176403
    18  O   -0.481203
    19  C   -0.234644
    20  H    0.180392
    21  H    0.200422
    22  H    0.178442
    23  C   -0.226674
    24  H    0.158844
    25  H    0.170594
    26  H    0.189231
    27  C   -0.219865
    28  H    0.163757
    29  H    0.184783
    30  H    0.161091
    31  C   -0.209548
    32  H    0.178650
    33  H    0.155633
    34  H    0.155918
 Sum of Mulliken charges =   1.00000

 Dipole moment (field-independent basis, Debye):
    X=              3.5944    Y=              3.4295    Z=             -2.6471  Tot=              5.6293
 Quadrupole moment (field-independent basis, Debye-Ang):
   XX=            -57.8430   YY=            -77.1264   ZZ=            -70.0261
   XY=              3.9827   XZ=             -1.9344   YZ=             -1.9021

  Exact polarizability: 172.208   3.104 133.636   0.817   1.366 133.159
 Approx polarizability: 183.586   3.271 153.471   5.003   1.671 156.364

                      1                      2                      3
                      A                      A                      A
 Frequencies --     31.2814                53.4547                54.9686
 Red. masses --      3.7000                 2.4457                 2.9452
 Frc consts  --      0.0021                 0.0041                 0.0052
 IR Inten    --      1.8724                 3.2934                 3.5029

                      4                      5                      6
                      A                      A                      A
 Frequencies --     64.6065                73.1637                98.1796
 Red. masses --      3.1095                 2.7321                 2.5121
 Frc consts  --      0.0076                 0.0086                 0.0143
 IR Inten    --      3.1873                 3.4759                 1.6363

                      7                      8                      9
                      A                      A                      A
 Frequencies --    116.1272               118.6592               144.9309
 Red. masses --      2.7760                 2.1857                 2.5657
 Frc consts  --      0.0221                 0.0181                 0.0318
 IR Inten    --      2.5753                 8.2658                 5.3817

                     10                     11                     12
                      A                      A                      A
 Frequencies --    179.7865               184.9131               196.0507
 Red. masses --      1.4186                 2.1801                 1.5437
 Frc consts  --      0.0270                 0.0439                 0.0350
 IR Inten    --      0.2067                 1.0449                 0.8205

                     13                     14                     15
                      A                      A                      A
 Frequencies --    206.0843               231.5876               252.9944
 Red. masses --      1.2968                 1.7800                 2.7402
 Frc consts  --      0.0324                 0.0562                 0.1033
 IR Inten    --      1.3146                16.3392                 1.7276

                     16                     17                     18
                      A                      A                      A
 Frequencies --    282.0508               297.6815               317.7185
 Red. masses --      3.0912                 3.7726                 3.7810
 Frc consts  --      0.1449                 0.1970                 0.2249
 IR Inten    --      9.1271                12.8733                 4.2817

                     19                     20                     21
                      A                      A                      A
 Frequencies --    347.6537               388.7647               398.1605
 Red. masses --      4.2021                 5.3215                 3.9836
 Frc consts  --      0.2992                 0.4739                 0.3721
 IR Inten    --     15.5946                 6.2844                 8.9017

                     22                     23                     24
                      A                      A                      A
 Frequencies --    410.4943               485.7711               507.6961
 Red. masses --      4.0414                 3.6565                 4.4873
 Frc consts  --      0.4012                 0.5084                 0.6815
 IR Inten    --     10.6361                31.0224                 6.4539

                     25                     26                     27
                      A                      A                      A
 Frequencies --    570.7145               581.0013               641.6291
 Red. masses --      3.8712                 4.6177                 4.6590
 Frc consts  --      0.7429                 0.9184                 1.1301
 IR Inten    --     15.6910                28.0923                11.6466

                     28                     29                     30
                      A                      A                      A
 Frequencies --    760.9149               848.3404               858.7560
 Red. masses --      4.8998                 2.0497                 3.0673
 Frc consts  --      1.6715                 0.8691                 1.3327
 IR Inten    --     58.0645                 6.0554                18.4445

                     31                     32                     33
                      A                      A                      A
 Frequencies --    927.6802               959.0339               961.7608
 Red. masses --      4.3167                 2.1402                 4.0421
 Frc consts  --      2.1888                 1.1598                 2.2029
 IR Inten    --     37.6804                46.9708                13.6889

                     34                     35                     36
                      A                      A                      A
 Frequencies --    984.5158              1010.0260              1032.4847
 Red. masses --      3.8633                 4.4892                 2.9799
 Frc consts  --      2.2063                 2.6983                 1.8716
 IR Inten    --     12.7290                29.8769                33.0311

                     37                     38                     39
                      A                      A                      A
 Frequencies --   1045.3359              1098.1183              1123.2238
 Red. masses --      2.6822                 2.3644                 3.4962
 Frc consts  --      1.7269                 1.6798                 2.5989
 IR Inten    --     10.9698               124.2218               112.4315

                     40                     41                     42
                      A                      A                      A
 Frequencies --   1131.3058              1135.0816              1139.8395
 Red. masses --      2.3231                 2.4997                 2.7825
 Frc consts  --      1.7518                 1.8975                 2.1300
 IR Inten    --     78.0048                41.6778               131.7274

                     43                     44                     45
                      A                      A                      A
 Frequencies --   1154.6795              1162.5263              1183.7434
 Red. masses --      2.3903                 4.4918                 1.2923
 Frc consts  --      1.8777                 3.5767                 1.0669
 IR Inten    --    256.8240               139.1619                 7.4514

                     46                     47                     48
                      A                      A                      A
 Frequencies --   1185.2134              1189.9312              1191.6440
 Red. masses --      1.2744                 1.3254                 1.2768
 Frc consts  --      1.0547                 1.1057                 1.0683
 IR Inten    --      3.0992                 8.7837                 2.6271

                     49                     50                     51
                      A                      A                      A
 Frequencies --   1213.0729              1227.0950              1229.3957
 Red. masses --      1.4189                 1.6271                 1.6143
 Frc consts  --      1.2302                 1.4435                 1.4376
 IR Inten    --     14.3564                70.0466                14.2721

                     52                     53                     54
                      A                      A                      A
 Frequencies --   1234.3115              1252.4455              1276.2842
 Red. masses --      1.6342                 1.9250                 1.3490
 Frc consts  --      1.4669                 1.7791                 1.2947
 IR Inten    --     27.1427                28.5235                 1.5305

                     55                     56                     57
                      A                      A                      A
 Frequencies --   1323.7870              1342.8916              1345.6710
 Red. masses --      1.2258                 1.1928                 1.2440
 Frc consts  --      1.2657                 1.2674                 1.3272
 IR Inten    --     13.1840                23.2106                18.4792

                     58                     59                     60
                      A                      A                      A
 Frequencies --   1367.1089              1368.4169              1390.9768
 Red. masses --      1.2778                 1.4170                 1.6501
 Frc consts  --      1.4071                 1.5633                 1.8810
 IR Inten    --     27.1491                 4.4460                41.4134

                     61                     62                     63
                      A                      A                      A
 Frequencies --   1430.5875              1438.8309              1452.7295
 Red. masses --      1.5631                 1.3370                 1.3137
 Frc consts  --      1.8847                 1.6307                 1.6335
 IR Inten    --     15.0567                23.2295                43.1373

                     64                     65                     66
                      A                      A                      A
 Frequencies --   1492.0933              1497.2281              1498.3691
 Red. masses --      1.1195                 1.1199                 1.1280
 Frc consts  --      1.4684                 1.4791                 1.4921
 IR Inten    --     13.3188                 0.2460                 6.3426

                     67                     68                     69
                      A                      A                      A
 Frequencies --   1500.8459              1509.0811              1515.0715
 Red. masses --      1.1472                 1.0480                 1.0556
 Frc consts  --      1.5226                 1.4062                 1.4276
 IR Inten    --      2.7728                 7.6683                10.9579

                     70                     71                     72
                      A                      A                      A
 Frequencies --   1516.3106              1517.9693              1524.6242
 Red. masses --      1.0811                 1.0528                 1.0595
 Frc consts  --      1.4645                 1.4293                 1.4511
 IR Inten    --      9.5786                 6.2551                20.2353

                     73                     74                     75
                      A                      A                      A
 Frequencies --   1524.9774              1525.0213              1528.8642
 Red. masses --      1.0591                 1.0510                 1.0720
 Frc consts  --      1.4512                 1.4402                 1.4763
 IR Inten    --     27.8302                 4.2320                14.8184

                     76                     77                     78
                      A                      A                      A
 Frequencies --   1551.9501              1640.8974              3017.3557
 Red. masses --      1.0875                 5.4518                 1.0461
 Frc consts  --      1.5432                 8.6487                 5.6116
 IR Inten    --      4.2854               348.5276                44.7639

                     79                     80                     81
                      A                      A                      A
 Frequencies --   3023.5163              3028.8285              3035.6236
 Red. masses --      1.0517                 1.0360                 1.0343
 Frc consts  --      5.6647                 5.5999                 5.6153
 IR Inten    --     79.0580                47.2086                44.2536

                     82                     83                     84
                      A                      A                      A
 Frequencies --   3045.7308              3057.4253              3067.3561
 Red. masses --      1.0357                 1.0793                 1.0843
 Frc consts  --      5.6607                 5.9445                 6.0108
 IR Inten    --     41.1748                 4.3111                25.4101

                     85                     86                     87
                      A                      A                      A
 Frequencies --   3073.3521              3074.9079              3090.2951
 Red. masses --      1.0855                 1.1057                 1.0996
 Frc consts  --      6.0409                 6.1595                 6.1870
 IR Inten    --     14.5635                74.7561                11.1525

                     88                     89                     90
                      A                      A                      A
 Frequencies --   3090.9111              3098.4915              3115.8104
 Red. masses --      1.1055                 1.1064                 1.1081
 Frc consts  --      6.2226                 6.2582                 6.3381
 IR Inten    --     51.9832                51.3597                32.9225

                     91                     92                     93
                      A                      A                      A
 Frequencies --   3159.1288              3162.9896              3163.6245
 Red. masses --      1.0997                 1.0876                 1.1010
 Frc consts  --      6.4665                 6.4110                 6.4925
 IR Inten    --     27.2774                 0.8471                23.4310

                     94                     95                     96
                      A                      A                      A
 Frequencies --   3170.0070              3182.6832              3210.0110
 Red. masses --      1.1006                 1.1027                 1.0934
 Frc consts  --      6.5160                 6.5811                 6.6381
 IR Inten    --     20.7742                14.0569                 0.6851

 - Thermochemistry -
 -------------------
 Temperature   298.150 Kelvin.  Pressure   1.00000 Atm.
 Atom     1 has atomic number  6 and mass  12.00000

 Molecular mass:   219.12325 amu.
 Principal axes and moments of inertia in atomic units:
                           1         2         3
     Eigenvalues --  2225.821524422.376384772.33420
           X            0.99999   0.00129   0.00457
           Y           -0.00108   0.99896  -0.04564
           Z           -0.00463   0.04564   0.99895
 This molecule is an asymmetric top.
 Rotational symmetry number  1.
 Warning -- assumption of classical behavior for rotation
           may cause significant error
 Rotational temperatures (Kelvin)      0.03891     0.01959     0.01815
 Rotational constants (GHZ):           0.81082     0.40809     0.37817
 Zero-point vibrational energy     774134.8 (Joules/Mol)
                                  185.02267 (Kcal/Mol)
 Warning -- explicit consideration of  26 degrees of freedom as
           vibrations may cause significant error
 Vibrational temperatures:     45.01    76.91    79.09    92.95   105.27
          (Kelvin)            141.26   167.08   170.72   208.52   258.67
                              266.05   282.07   296.51   333.20   364.00
                              405.81   428.30   457.13   500.20   559.35
                              572.86   590.61   698.92   730.46   821.13
                              835.93   923.16  1094.79  1220.57  1235.56
                             1334.72  1379.84  1383.76  1416.50  1453.20
                             1485.52  1504.01  1579.95  1616.07  1627.70
                             1633.13  1639.97  1661.33  1672.62  1703.14
                             1705.26  1712.05  1714.51  1745.34  1765.52
                             1768.83  1775.90  1801.99  1836.29  1904.63
                             1932.12  1936.12  1966.96  1968.85  2001.31
                             2058.30  2070.16  2090.15  2146.79  2154.18
                             2155.82  2159.38  2171.23  2179.85  2181.63
                             2184.02  2193.59  2194.10  2194.17  2199.69
                             2232.91  2360.89  4341.30  4350.17  4357.81
                             4367.59  4382.13  4398.95  4413.24  4421.87
                             4424.11  4446.25  4447.13  4458.04  4482.96
                             4545.28  4550.84  4551.75  4560.93  4579.17
                             4618.49

 Zero-point correction=                           0.294852 (Hartree/Particle)
 Thermal correction to Energy=                    0.312323
 Thermal correction to Enthalpy=                  0.313268
 Thermal correction to Gibbs Free Energy=         0.248614
 Sum of electronic and zero-point Energies=           -768.036022
 Sum of electronic and thermal Energies=              -768.018551
 Sum of electronic and thermal Enthalpies=            -768.017607
 Sum of electronic and thermal Free Energies=         -768.082261

                     E (Thermal)             CV                S
                      KCal/Mol        Cal/Mol-Kelvin    Cal/Mol-Kelvin
 Total                  195.986             61.445            136.076
 Electronic               0.000              0.000              0.000
 Translational            0.889              2.981             42.056
 Rotational               0.889              2.981             32.219
 Vibrational            194.208             55.483             61.801
 Vibration     1          0.594              1.983              5.746
 Vibration     2          0.596              1.976              4.685
 Vibration     3          0.596              1.976              4.630
 Vibration     4          0.597              1.971              4.311
 Vibration     5          0.599              1.967              4.066
 Vibration     6          0.604              1.950              3.490
 Vibration     7          0.608              1.936              3.164
 Vibration     8          0.609              1.934              3.122
 Vibration     9          0.616              1.908              2.738
 Vibration    10          0.629              1.867              2.331
 Vibration    11          0.631              1.860              2.278
 Vibration    12          0.636              1.845              2.170
 Vibration    13          0.641              1.831              2.078
 Vibration    14          0.653              1.793              1.867
 Vibration    15          0.664              1.758              1.710
 Vibration    16          0.681              1.707              1.521
 Vibration    17          0.691              1.678              1.430
 Vibration    18          0.704              1.640              1.322
 Vibration    19          0.725              1.580              1.177
 Vibration    20          0.757              1.494              1.005
 Vibration    21          0.764              1.474              0.969
 Vibration    22          0.775              1.447              0.925
 Vibration    23          0.842              1.282              0.695
 Vibration    24          0.863              1.233              0.639
 Vibration    25          0.927              1.095              0.503
 Vibration    26          0.938              1.072              0.484

                           ! Non-Optimized Parameters !
 Normal termination of Gaussian 16 at Fri May 24 08:53:35 2019.
