 Gaussian 16, Revision A.03,
 Gaussian 16:  ES64L-G16RevA.03 25-Dec-2016

 -------------------------------------------------------------------
 #p b3lyp 6-31g* opt freq=noraman scrf=(pcm,solvent=tetrahydrofuran)
 -------------------------------------------------------------------

 -----
 title
 -----
 Symbolic Z-matrix:
 Charge =  1 Multiplicity = 1

 SCF Done:  E(RB3LYP) =  -768.322648082     A.U. after   14 cycles
 SCF Done:  E(RB3LYP) =  -768.322647701     A.U. after    6 cycles
 Optimization completed.
    -- Stationary point found.
 Normal termination of Gaussian 16 at Fri May 24 08:36:39 2019.

 --------------------------------------------------------------------
 #P Geom=AllCheck Guess=TCheck SCRF=Check GenChk RB3LYP/6-31G(d) Freq
 --------------------------------------------------------------------

 Structure from the checkpoint file:  "/scratch/Gau-44092.chk"
 -----
 title
 -----
 Charge =  1 Multiplicity = 1

                         Standard orientation:
 ---------------------------------------------------------------------
 Center     Atomic      Atomic             Coordinates (Angstroms)
 Number     Number       Type             X           Y           Z
 ---------------------------------------------------------------------
      1          6           0        0.925828    0.639585    0.074541
      2          6           0        1.568506   -0.776362   -0.074870
      3          6           0        0.874312   -1.716522    0.849506
      4          6           0       -1.280333   -0.649672    0.521639
      5          6           0       -0.580061    0.510983   -0.228870
      6          1           0        1.430183   -2.481246    1.394601
      7          1           0        1.393743   -1.101657   -1.115360
      8          1           0        1.103633    0.979596    1.103040
      9          1           0       -1.807894   -0.271756    1.396687
     10          1           0       -0.666500    0.324786   -1.303574
     11          8           0       -0.343279   -1.640450    1.156224
     12          8           0        2.928121   -0.750242    0.256051
     13          8           0        1.460679    1.531379   -0.857855
     14          8           0       -1.326461    1.692315   -0.023195
     15          6           0       -2.209877   -1.515519   -0.367441
     16          1           0       -2.759724   -2.222703    0.268800
     17          1           0       -1.594774   -2.087555   -1.071579
     18          8           0       -3.066153   -0.718037   -1.137321
     19          6           0        3.748994   -1.628546   -0.528735
     20          1           0        3.687608   -1.364434   -1.591137
     21          1           0        4.768751   -1.491234   -0.168980
     22          1           0        3.453201   -2.676811   -0.395691
     23          6           0        2.589467    2.297749   -0.419657
     24          1           0        3.457284    1.659421   -0.233456
     25          1           0        2.808291    2.994990   -1.230062
     26          1           0        2.349217    2.864206    0.489207
     27          6           0       -1.130085    2.397769    1.203273
     28          1           0       -1.925881    3.143050    1.245070
     29          1           0       -1.211518    1.746651    2.083997
     30          1           0       -0.161841    2.910636    1.223368
     31          6           0       -4.188041   -0.181621   -0.433991
     32          1           0       -4.836473    0.264532   -1.190173
     33          1           0       -4.735811   -0.973317    0.094023
     34          1           0       -3.887007    0.596057    0.277614
 ---------------------------------------------------------------------

 SCF Done:  E(RB3LYP) =  -768.322647701     A.U. after    1 cycles

 The electronic state is 1-A.
 Alpha  occ. eigenvalues --  -19.33245 -19.21337 -19.19330 -19.19301 -19.18865
 Alpha  occ. eigenvalues --  -10.39586 -10.31947 -10.31944 -10.30126 -10.29496
 Alpha  occ. eigenvalues --  -10.28193 -10.26315 -10.25407 -10.24858 -10.24668
 Alpha  occ. eigenvalues --   -1.21859  -1.10144  -1.08238  -1.07036  -1.06379
 Alpha  occ. eigenvalues --   -0.86841  -0.86051  -0.77305  -0.75443  -0.73896
 Alpha  occ. eigenvalues --   -0.71835  -0.69000  -0.67773  -0.65525  -0.62989
 Alpha  occ. eigenvalues --   -0.60039  -0.59267  -0.55813  -0.54841  -0.54104
 Alpha  occ. eigenvalues --   -0.52344  -0.51855  -0.51256  -0.50405  -0.49283
 Alpha  occ. eigenvalues --   -0.48367  -0.48009  -0.46303  -0.46194  -0.45343
 Alpha  occ. eigenvalues --   -0.44092  -0.43581  -0.42288  -0.41615  -0.40648
 Alpha  occ. eigenvalues --   -0.40018  -0.37694  -0.36336  -0.34939  -0.34384
 Alpha  occ. eigenvalues --   -0.32514  -0.30206  -0.29728  -0.28806
 Alpha virt. eigenvalues --   -0.15394  -0.00474   0.03912   0.04867   0.05456
 Alpha virt. eigenvalues --    0.07333   0.07619   0.07974   0.09857   0.10663
 Alpha virt. eigenvalues --    0.11053   0.11134   0.12306   0.12684   0.13273

 Mulliken charges:
               1
     1  C    0.100687
     2  C    0.033819
     3  C    0.287862
     4  C    0.028153
     5  C    0.119387
     6  H    0.278518
     7  H    0.235596
     8  H    0.180325
     9  H    0.234425
    10  H    0.203313
    11  O   -0.306410
    12  O   -0.471812
    13  O   -0.477097
    14  O   -0.475997
    15  C   -0.042521
    16  H    0.180499
    17  H    0.184709
    18  O   -0.456728
    19  C   -0.235095
    20  H    0.182279
    21  H    0.198408
    22  H    0.169972
    23  C   -0.227609
    24  H    0.174482
    25  H    0.183431
    26  H    0.161385
    27  C   -0.240931
    28  H    0.191417
    29  H    0.156654
    30  H    0.170497
    31  C   -0.225102
    32  H    0.183659
    33  H    0.158466
    34  H    0.161359
 Sum of Mulliken charges =   1.00000

 Dipole moment (field-independent basis, Debye):
    X=              2.7894    Y=             -5.1484    Z=              3.9715  Tot=              7.0752
 Quadrupole moment (field-independent basis, Debye-Ang):
   XX=            -58.9156   YY=            -68.0287   ZZ=            -84.7500
   XY=             -4.8704   XZ=             -7.4554   YZ=              2.7869

  Exact polarizability: 180.089  -3.453 149.793  -5.202  -4.344 117.172
 Approx polarizability: 188.641  -2.596 168.128  -3.040  -9.762 150.331

                      1                      2                      3
                      A                      A                      A
 Frequencies --     49.0047                57.0770                70.9733
 Red. masses --      3.7420                 2.9872                 3.4108
 Frc consts  --      0.0053                 0.0057                 0.0101
 IR Inten    --      0.4463                 3.0724                 0.4713

                      4                      5                      6
                      A                      A                      A
 Frequencies --     74.7666                91.7341               115.1371
 Red. masses --      3.4907                 1.7955                 1.6568
 Frc consts  --      0.0115                 0.0089                 0.0129
 IR Inten    --      1.9515                 3.8695                 4.8466

                      7                      8                      9
                      A                      A                      A
 Frequencies --    124.8035               152.0658               162.7741
 Red. masses --      2.9627                 2.2827                 1.6252
 Frc consts  --      0.0272                 0.0311                 0.0254
 IR Inten    --      1.3527                 0.5776                 4.8170

                     10                     11                     12
                      A                      A                      A
 Frequencies --    163.4468               180.1965               186.9169
 Red. masses --      1.3881                 1.8523                 1.3034
 Frc consts  --      0.0218                 0.0354                 0.0268
 IR Inten    --      1.0587                 1.3433                 2.0537

                     13                     14                     15
                      A                      A                      A
 Frequencies --    215.5211               229.6176               250.2606
 Red. masses --      3.1083                 2.1719                 3.5838
 Frc consts  --      0.0851                 0.0675                 0.1322
 IR Inten    --      5.1853                 6.3883                 9.0695

                     16                     17                     18
                      A                      A                      A
 Frequencies --    278.8580               298.6536               320.5078
 Red. masses --      3.3043                 5.4779                 3.9410
 Frc consts  --      0.1514                 0.2879                 0.2385
 IR Inten    --      1.9154                25.7490                 2.4364

                     19                     20                     21
                      A                      A                      A
 Frequencies --    390.1824               404.3433               432.1618
 Red. masses --      3.1867                 5.1519                 3.7268
 Frc consts  --      0.2858                 0.4963                 0.4101
 IR Inten    --      9.9048                 1.8913                17.4087

                     22                     23                     24
                      A                      A                      A
 Frequencies --    448.0795               466.7278               492.1260
 Red. masses --      3.6085                 4.0863                 4.7414
 Frc consts  --      0.4269                 0.5245                 0.6766
 IR Inten    --      2.3272                18.6360                10.3326

                     25                     26                     27
                      A                      A                      A
 Frequencies --    515.4502               547.3062               637.1583
 Red. masses --      3.5331                 3.0790                 2.9727
 Frc consts  --      0.5531                 0.5434                 0.7110
 IR Inten    --     55.3702                 1.0181                24.4309

                     28                     29                     30
                      A                      A                      A
 Frequencies --    701.1768               808.5183               858.5682
 Red. masses --      4.7371                 5.3783                 2.2090
 Frc consts  --      1.3722                 2.0715                 0.9594
 IR Inten    --     42.1912                48.0109                46.0556

                     31                     32                     33
                      A                      A                      A
 Frequencies --    902.4038               930.5901               954.6747
 Red. masses --      2.4472                 4.5346                 4.7203
 Frc consts  --      1.1741                 2.3137                 2.5347
 IR Inten    --      7.1432                67.6406                41.3208

                     34                     35                     36
                      A                      A                      A
 Frequencies --    986.9933              1013.9013              1052.2985
 Red. masses --      4.3046                 4.0483                 3.9678
 Frc consts  --      2.4707                 2.4519                 2.5887
 IR Inten    --     13.1827                20.9055                40.2855

                     37                     38                     39
                      A                      A                      A
 Frequencies --   1054.3773              1077.4264              1103.2842
 Red. masses --      4.1907                 2.6400                 2.2114
 Frc consts  --      2.7449                 1.8056                 1.5859
 IR Inten    --    124.7603                58.6900                34.1151

                     40                     41                     42
                      A                      A                      A
 Frequencies --   1128.8212              1138.6427              1155.7286
 Red. masses --      2.7659                 3.2974                 2.9897
 Frc consts  --      2.0765                 2.5188                 2.3528
 IR Inten    --     25.2332                98.4784               263.5671

                     43                     44                     45
                      A                      A                      A
 Frequencies --   1159.8107              1170.0123              1182.6567
 Red. masses --      3.4932                 2.9346                 1.2725
 Frc consts  --      2.7685                 2.3669                 1.0486
 IR Inten    --    126.9358               167.0914                 3.2788

                     46                     47                     48
                      A                      A                      A
 Frequencies --   1184.1813              1184.9814              1192.5638
 Red. masses --      1.2952                 1.3589                 1.3032
 Frc consts  --      1.0701                 1.1243                 1.0920
 IR Inten    --      0.6995                18.8253                15.7219

                     49                     50                     51
                      A                      A                      A
 Frequencies --   1220.9781              1224.9213              1230.4455
 Red. masses --      1.8845                 1.6137                 1.7040
 Frc consts  --      1.6552                 1.4266                 1.5200
 IR Inten    --     71.7798                22.9716                46.1682

                     52                     53                     54
                      A                      A                      A
 Frequencies --   1237.3796              1246.0037              1287.8513
 Red. masses --      1.6667                 1.5451                 1.3821
 Frc consts  --      1.5036                 1.4133                 1.3506
 IR Inten    --     50.8885                 7.2777                39.8064

                     55                     56                     57
                      A                      A                      A
 Frequencies --   1306.4523              1333.6283              1359.0500
 Red. masses --      1.2388                 1.2396                 1.3042
 Frc consts  --      1.2457                 1.2990                 1.4192
 IR Inten    --      8.1504                25.0384                 0.1941

                     58                     59                     60
                      A                      A                      A
 Frequencies --   1372.8920              1393.1889              1427.7447
 Red. masses --      1.2279                 1.2625                 1.3529
 Frc consts  --      1.3636                 1.4438                 1.6249
 IR Inten    --      2.3671                 2.2280                51.1373

                     61                     62                     63
                      A                      A                      A
 Frequencies --   1429.8488              1444.8428              1457.8679
 Red. masses --      1.2153                 1.2037                 1.1673
 Frc consts  --      1.4639                 1.4805                 1.4618
 IR Inten    --     32.0781                27.9044                 6.9612

                     64                     65                     66
                      A                      A                      A
 Frequencies --   1497.3662              1497.9452              1498.9220
 Red. masses --      1.1324                 1.1166                 1.1210
 Frc consts  --      1.4960                 1.4762                 1.4840
 IR Inten    --      6.3738                 0.3845                 0.8836

                     67                     68                     69
                      A                      A                      A
 Frequencies --   1500.1351              1506.9130              1512.9216
 Red. masses --      1.1339                 1.0594                 1.0749
 Frc consts  --      1.5035                 1.4174                 1.4496
 IR Inten    --      4.1370                 3.7947                 8.7750

                     70                     71                     72
                      A                      A                      A
 Frequencies --   1514.9079              1516.2820              1526.1086
 Red. masses --      1.0730                 1.0545                 1.0511
 Frc consts  --      1.4508                 1.4285                 1.4424
 IR Inten    --      6.5562                 8.6482                 7.8515

                     73                     74                     75
                      A                      A                      A
 Frequencies --   1527.0612              1533.3115              1534.4672
 Red. masses --      1.0665                 1.0521                 1.0876
 Frc consts  --      1.4654                 1.4574                 1.5089
 IR Inten    --      7.5234                14.6501                12.9793

                     76                     77                     78
                      A                      A                      A
 Frequencies --   1535.4782              1635.5366              2996.2582
 Red. masses --      1.0579                 6.0913                 1.0788
 Frc consts  --      1.4695                 9.6002                 5.7064
 IR Inten    --     11.9590               261.2908                15.8867

                     79                     80                     81
                      A                      A                      A
 Frequencies --   3034.1663              3037.5397              3040.9551
 Red. masses --      1.0362                 1.0361                 1.0604
 Frc consts  --      5.6205                 5.6322                 5.7776
 IR Inten    --     49.9385                42.5486                57.4501

                     82                     83                     84
                      A                      A                      A
 Frequencies --   3042.1620              3043.7643              3073.1990
 Red. masses --      1.0342                 1.0392                 1.0830
 Frc consts  --      5.6393                 5.6723                 6.0265
 IR Inten    --     56.8324                39.5802                19.4437

                     85                     86                     87
                      A                      A                      A
 Frequencies --   3099.7503              3100.0496              3102.2008
 Red. masses --      1.0911                 1.1015                 1.1016
 Frc consts  --      6.1767                 6.2370                 6.2461
 IR Inten    --     23.6837                35.6958                60.8575

                     88                     89                     90
                      A                      A                      A
 Frequencies --   3108.4131              3108.9908              3126.3150
 Red. masses --      1.1035                 1.1057                 1.0968
 Frc consts  --      6.2823                 6.2971                 6.3162
 IR Inten    --     32.6683                25.7672                38.2037

                     91                     92                     93
                      A                      A                      A
 Frequencies --   3161.5523              3164.4641              3166.9571
 Red. masses --      1.1005                 1.1002                 1.0889
 Frc consts  --      6.4808                 6.4913                 6.4346
 IR Inten    --     24.7909                20.4148                 3.8433

                     94                     95                     96
                      A                      A                      A
 Frequencies --   3171.0854              3183.9766              3197.9931
 Red. masses --      1.1055                 1.1019                 1.0940
 Frc consts  --      6.5497                 6.5816                 6.5922
 IR Inten    --     22.5386                17.0350                 2.7679

 - Thermochemistry -
 -------------------
 Temperature   298.150 Kelvin.  Pressure   1.00000 Atm.
 Atom     1 has atomic number  6 and mass  12.00000

 Molecular mass:   219.12325 amu.
 Principal axes and moments of inertia in atomic units:
                           1         2         3
     Eigenvalues --  2073.963934409.445745650.01774
           X            0.99993  -0.00307  -0.01108
           Y            0.00343   0.99947   0.03242
           Z            0.01098  -0.03246   0.99941
 This molecule is an asymmetric top.
 Rotational symmetry number  1.
 Warning -- assumption of classical behavior for rotation
           may cause significant error
 Rotational temperatures (Kelvin)      0.04176     0.01964     0.01533
 Rotational constants (GHZ):           0.87019     0.40929     0.31942
 Zero-point vibrational energy     774987.0 (Joules/Mol)
                                  185.22634 (Kcal/Mol)
 Warning -- explicit consideration of  26 degrees of freedom as
           vibrations may cause significant error
 Vibrational temperatures:     70.51    82.12   102.11   107.57   131.98
          (Kelvin)            165.66   179.56   218.79   234.20   235.16
                              259.26   268.93   310.09   330.37   360.07
                              401.21   429.70   461.14   561.39   581.76
                              621.78   644.69   671.52   708.06   741.62
                              787.45   916.73  1008.84  1163.28  1235.29
                             1298.36  1338.91  1373.56  1420.06  1458.78
                             1514.02  1517.01  1550.18  1587.38  1624.12
                             1638.25  1662.84  1668.71  1683.39  1701.58
                             1703.77  1704.92  1715.83  1756.72  1762.39
                             1770.34  1780.31  1792.72  1852.93  1879.69
                             1918.79  1955.37  1975.29  2004.49  2054.21
                             2057.23  2078.81  2097.55  2154.38  2155.21
                             2156.61  2158.36  2168.11  2176.76  2179.61
                             2181.59  2195.73  2197.10  2206.09  2207.76
                             2209.21  2353.17  4310.95  4365.49  4370.34
                             4375.26  4376.99  4379.30  4421.65  4459.85
                             4460.28  4463.38  4472.31  4473.14  4498.07
                             4548.77  4552.96  4556.54  4562.48  4581.03
                             4601.20

 Zero-point correction=                           0.295177 (Hartree/Particle)
 Thermal correction to Energy=                    0.312414
 Thermal correction to Enthalpy=                  0.313358
 Thermal correction to Gibbs Free Energy=         0.250187
 Sum of electronic and zero-point Energies=           -768.027471
 Sum of electronic and thermal Energies=              -768.010234
 Sum of electronic and thermal Enthalpies=            -768.009290
 Sum of electronic and thermal Free Energies=         -768.072461

                     E (Thermal)             CV                S
                      KCal/Mol        Cal/Mol-Kelvin    Cal/Mol-Kelvin
 Total                  196.042             61.574            132.954
 Electronic               0.000              0.000              0.000
 Translational            0.889              2.981             42.056
 Rotational               0.889              2.981             32.313
 Vibrational            194.265             55.612             58.585
 Vibration     1          0.595              1.978              4.857
 Vibration     2          0.596              1.975              4.556
 Vibration     3          0.598              1.968              4.126
 Vibration     4          0.599              1.966              4.024
 Vibration     5          0.602              1.955              3.623
 Vibration     6          0.608              1.937              3.180
 Vibration     7          0.610              1.928              3.025
 Vibration     8          0.619              1.900              2.646
 Vibration     9          0.623              1.888              2.517
 Vibration    10          0.623              1.887              2.510
 Vibration    11          0.629              1.867              2.326
 Vibration    12          0.632              1.858              2.258
 Vibration    13          0.645              1.817              1.996
 Vibration    14          0.652              1.796              1.882
 Vibration    15          0.663              1.762              1.729
 Vibration    16          0.679              1.713              1.541
 Vibration    17          0.692              1.676              1.424
 Vibration    18          0.706              1.634              1.308
 Vibration    19          0.758              1.491              0.999
 Vibration    20          0.770              1.461              0.947
 Vibration    21          0.793              1.400              0.852
 Vibration    22          0.807              1.365              0.802
 Vibration    23          0.824              1.324              0.747
 Vibration    24          0.848              1.267              0.678
 Vibration    25          0.870              1.216              0.621
 Vibration    26          0.903              1.146              0.550

                           ! Non-Optimized Parameters !
 Normal termination of Gaussian 16 at Fri May 24 09:03:49 2019.
