 Gaussian 16, Revision A.03,
 Gaussian 16:  ES64L-G16RevA.03 25-Dec-2016

 -------------------------------------------------------------------
 #p b3lyp 6-31g* opt freq=noraman scrf=(pcm,solvent=tetrahydrofuran)
 -------------------------------------------------------------------

 -----
 title
 -----
 Symbolic Z-matrix:
 Charge =  1 Multiplicity = 1

 SCF Done:  E(RB3LYP) =  -768.328437342     A.U. after   13 cycles
 SCF Done:  E(RB3LYP) =  -768.328437372     A.U. after    6 cycles
 Optimization completed.
    -- Stationary point found.
 Normal termination of Gaussian 16 at Fri May 24 08:36:25 2019.

 --------------------------------------------------------------------
 #P Geom=AllCheck Guess=TCheck SCRF=Check GenChk RB3LYP/6-31G(d) Freq
 --------------------------------------------------------------------

 Structure from the checkpoint file:  "/scratch/Gau-140258.chk"
 -----
 title
 -----
 Charge =  1 Multiplicity = 1

                         Standard orientation:
 ---------------------------------------------------------------------
 Center     Atomic      Atomic             Coordinates (Angstroms)
 Number     Number       Type             X           Y           Z
 ---------------------------------------------------------------------
      1          6           0        0.954102    0.589244    0.587844
      2          6           0        1.203270    0.564394   -0.962489
      3          6           0        0.304364   -0.364792   -1.714049
      4          6           0       -1.272315   -0.558756    0.103551
      5          6           0       -0.025023   -0.532081    0.979548
      6          1           0        0.578089   -0.672490   -2.725114
      7          1           0        0.850210    1.546522   -1.329855
      8          1           0        1.917313    0.405551    1.079883
      9          1           0       -1.817481   -1.485503    0.279521
     10          1           0       -0.346386   -0.384496    2.018055
     11          8           0       -0.815649   -0.778285   -1.326725
     12          8           0        2.523601    0.461643   -1.415610
     13          8           0        0.402583    1.811632    1.007805
     14          8           0        0.610925   -1.782895    0.784862
     15          6           0       -2.215055    0.647628    0.120085
     16          1           0       -1.705031    1.540082   -0.247691
     17          1           0       -2.484949    0.832752    1.170432
     18          8           0       -3.344753    0.439935   -0.691714
     19          6           0        3.211636   -0.759994   -1.105288
     20          1           0        2.662392   -1.639423   -1.463467
     21          1           0        4.167317   -0.695821   -1.625865
     22          1           0        3.392796   -0.861372   -0.030224
     23          6           0        1.339642    2.888175    1.099111
     24          1           0        1.770208    3.136556    0.120089
     25          1           0        0.783519    3.748234    1.474177
     26          1           0        2.149901    2.638134    1.795451
     27          6           0        1.324833   -2.276566    1.923354
     28          1           0        1.764885   -3.226846    1.618218
     29          1           0        2.123844   -1.592342    2.234465
     30          1           0        0.641469   -2.440584    2.765116
     31          6           0       -4.394562   -0.298026   -0.070385
     32          1           0       -4.099232   -1.330353    0.162877
     33          1           0       -4.729125    0.194183    0.852892
     34          1           0       -5.218733   -0.324387   -0.785594
 ---------------------------------------------------------------------

 SCF Done:  E(RB3LYP) =  -768.328437372     A.U. after    1 cycles

 The electronic state is 1-A.
 Alpha  occ. eigenvalues --  -19.32507 -19.20904 -19.20209 -19.19923 -19.18377
 Alpha  occ. eigenvalues --  -10.39476 -10.31956 -10.31739 -10.30035 -10.29935
 Alpha  occ. eigenvalues --  -10.27952 -10.26207 -10.25855 -10.25615 -10.24801
 Alpha  occ. eigenvalues --   -1.21350  -1.09709  -1.08570  -1.07659  -1.06624
 Alpha  occ. eigenvalues --   -0.87082  -0.85272  -0.77804  -0.75010  -0.74531
 Alpha  occ. eigenvalues --   -0.71390  -0.70031  -0.68630  -0.66013  -0.61953
 Alpha  occ. eigenvalues --   -0.59070  -0.58774  -0.56842  -0.54441  -0.53901
 Alpha  occ. eigenvalues --   -0.53038  -0.51810  -0.50868  -0.50516  -0.49486
 Alpha  occ. eigenvalues --   -0.48460  -0.47572  -0.47251  -0.46679  -0.45808
 Alpha  occ. eigenvalues --   -0.44703  -0.43342  -0.42362  -0.41518  -0.40712
 Alpha  occ. eigenvalues --   -0.40345  -0.37140  -0.36934  -0.35759  -0.34963
 Alpha  occ. eigenvalues --   -0.32964  -0.31064  -0.29489  -0.28947
 Alpha virt. eigenvalues --   -0.14858   0.00946   0.03470   0.04045   0.06203
 Alpha virt. eigenvalues --    0.06772   0.07301   0.08410   0.09203   0.10147
 Alpha virt. eigenvalues --    0.10669   0.11358   0.12178   0.12815   0.13354

 Mulliken charges:
               1
     1  C    0.129073
     2  C    0.029780
     3  C    0.275797
     4  C    0.055604
     5  C    0.047502
     6  H    0.277668
     7  H    0.266304
     8  H    0.188163
     9  H    0.235384
    10  H    0.205778
    11  O   -0.297793
    12  O   -0.468645
    13  O   -0.488547
    14  O   -0.491404
    15  C   -0.044695
    16  H    0.191050
    17  H    0.182670
    18  O   -0.464868
    19  C   -0.240861
    20  H    0.167777
    21  H    0.198742
    22  H    0.173305
    23  C   -0.229132
    24  H    0.166515
    25  H    0.190233
    26  H    0.169742
    27  C   -0.226586
    28  H    0.190813
    29  H    0.164336
    30  H    0.173517
    31  C   -0.225536
    32  H    0.154386
    33  H    0.160520
    34  H    0.183408
 Sum of Mulliken charges =   1.00000

 Dipole moment (field-independent basis, Debye):
    X=              1.8499    Y=             -1.5461    Z=              0.6602  Tot=              2.4997
 Quadrupole moment (field-independent basis, Debye-Ang):
   XX=            -66.6776   YY=            -76.3378   ZZ=            -73.7817
   XY=              0.7256   XZ=             -3.0484   YZ=              0.3636

  Exact polarizability: 159.396   0.860 135.676  -4.921   2.406 132.687
 Approx polarizability: 171.837   4.022 156.116  -5.165   2.999 157.325

                      1                      2                      3
                      A                      A                      A
 Frequencies --     55.8301                65.5491                80.8962
 Red. masses --      3.9722                 3.1882                 3.3842
 Frc consts  --      0.0073                 0.0081                 0.0130
 IR Inten    --      0.4042                 1.5816                 0.2777

                      4                      5                      6
                      A                      A                      A
 Frequencies --     90.2031               104.2092               121.7191
 Red. masses --      2.6695                 2.6008                 2.4764
 Frc consts  --      0.0128                 0.0166                 0.0216
 IR Inten    --      2.3368                 7.9853                 5.9063

                      7                      8                      9
                      A                      A                      A
 Frequencies --    126.6746               137.4064               143.7956
 Red. masses --      2.1712                 2.2231                 1.6864
 Frc consts  --      0.0205                 0.0247                 0.0205
 IR Inten    --      4.0858                 0.9761                 3.8777

                     10                     11                     12
                      A                      A                      A
 Frequencies --    155.2734               182.2982               184.0539
 Red. masses --      1.5457                 1.2602                 1.4298
 Frc consts  --      0.0220                 0.0247                 0.0285
 IR Inten    --      2.6227                 1.2040                 3.0700

                     13                     14                     15
                      A                      A                      A
 Frequencies --    192.4683               223.0654               270.9045
 Red. masses --      2.0004                 2.2583                 3.6934
 Frc consts  --      0.0437                 0.0662                 0.1597
 IR Inten    --      1.8289                16.0202                 1.2877

                     16                     17                     18
                      A                      A                      A
 Frequencies --    281.8854               316.7715               332.3235
 Red. masses --      3.7361                 3.5932                 4.2297
 Frc consts  --      0.1749                 0.2124                 0.2752
 IR Inten    --      2.4761                 1.4202                 2.7247

                     19                     20                     21
                      A                      A                      A
 Frequencies --    359.3823               387.5113               415.5242
 Red. masses --      5.2315                 3.9531                 3.9914
 Frc consts  --      0.3981                 0.3498                 0.4060
 IR Inten    --      6.5283                25.9463                22.3057

                     22                     23                     24
                      A                      A                      A
 Frequencies --    447.3285               490.4276               522.3901
 Red. masses --      2.8092                 4.9252                 3.3698
 Frc consts  --      0.3312                 0.6979                 0.5418
 IR Inten    --      6.6612                 2.2522                14.3700

                     25                     26                     27
                      A                      A                      A
 Frequencies --    561.8644               602.1308               617.6182
 Red. masses --      4.0053                 3.9991                 4.7181
 Frc consts  --      0.7450                 0.8543                 1.0604
 IR Inten    --     47.6210                 6.1064                 2.3769

                     28                     29                     30
                      A                      A                      A
 Frequencies --    675.5771               774.8201               890.0489
 Red. masses --      4.2966                 2.7513                 2.7820
 Frc consts  --      1.1554                 0.9732                 1.2985
 IR Inten    --     64.5267                12.7054                19.5827

                     31                     32                     33
                      A                      A                      A
 Frequencies --    926.6287               935.0769               948.5566
 Red. masses --      2.7304                 3.7465                 4.1759
 Frc consts  --      1.3813                 1.9300                 2.2137
 IR Inten    --     42.4511                 2.8231                18.9064

                     34                     35                     36
                      A                      A                      A
 Frequencies --    966.4919               991.2445              1013.1828
 Red. masses --      3.8767                 2.9570                 2.4741
 Frc consts  --      2.1336                 1.7118                 1.4964
 IR Inten    --     58.9117                21.0988                22.5529

                     37                     38                     39
                      A                      A                      A
 Frequencies --   1044.9019              1070.3392              1103.5062
 Red. masses --      3.4114                 2.5214                 2.5195
 Frc consts  --      2.1945                 1.7019                 1.8076
 IR Inten    --     26.6368                59.5950                53.8406

                     40                     41                     42
                      A                      A                      A
 Frequencies --   1122.6896              1124.7659              1146.5524
 Red. masses --      2.2177                 5.0261                 3.7027
 Frc consts  --      1.6469                 3.7464                 2.8679
 IR Inten    --    146.2948                97.2986               278.5086

                     43                     44                     45
                      A                      A                      A
 Frequencies --   1162.1063              1167.5540              1179.8739
 Red. masses --      3.3582                 3.2250                 1.3591
 Frc consts  --      2.6720                 2.5902                 1.1147
 IR Inten    --    173.0857                50.0823                22.2886

                     46                     47                     48
                      A                      A                      A
 Frequencies --   1187.4846              1188.3814              1191.6881
 Red. masses --      1.3057                 1.2872                 1.2785
 Frc consts  --      1.0848                 1.0710                 1.0697
 IR Inten    --      8.8420                10.1752                 2.5306

                     49                     50                     51
                      A                      A                      A
 Frequencies --   1215.7101              1223.6729              1225.6344
 Red. masses --      1.4855                 1.5817                 1.7107
 Frc consts  --      1.2936                 1.3954                 1.5141
 IR Inten    --     11.3218                32.3335                76.8823

                     52                     53                     54
                      A                      A                      A
 Frequencies --   1231.3334              1244.8410              1290.5533
 Red. masses --      1.6367                 1.7074                 1.4781
 Frc consts  --      1.4621                 1.5589                 1.4504
 IR Inten    --     57.6896                43.1892                30.3695

                     55                     56                     57
                      A                      A                      A
 Frequencies --   1313.8191              1326.0535              1341.0375
 Red. masses --      1.3252                 1.2069                 1.2584
 Frc consts  --      1.3477                 1.2504                 1.3334
 IR Inten    --      7.0462                11.0788                 6.4261

                     58                     59                     60
                      A                      A                      A
 Frequencies --   1351.3778              1367.3714              1385.9898
 Red. masses --      1.2298                 1.2558                 1.4035
 Frc consts  --      1.3233                 1.3833                 1.5885
 IR Inten    --      7.3932                33.3164                48.6691

                     61                     62                     63
                      A                      A                      A
 Frequencies --   1407.7287              1416.0138              1443.7708
 Red. masses --      1.3412                 1.4362                 1.2707
 Frc consts  --      1.5660                 1.6967                 1.5606
 IR Inten    --     18.7814                22.0688                31.4999

                     64                     65                     66
                      A                      A                      A
 Frequencies --   1496.2718              1497.4488              1498.7807
 Red. masses --      1.1024                 1.1045                 1.1322
 Frc consts  --      1.4541                 1.4592                 1.4985
 IR Inten    --      3.4739                 3.6346                 0.8139

                     67                     68                     69
                      A                      A                      A
 Frequencies --   1500.4929              1507.3578              1509.7697
 Red. masses --      1.1270                 1.0952                 1.0538
 Frc consts  --      1.4950                 1.4662                 1.4152
 IR Inten    --      2.8119                12.3290                12.6784

                     70                     71                     72
                      A                      A                      A
 Frequencies --   1512.9930              1514.6400              1519.6827
 Red. masses --      1.0598                 1.0578                 1.0654
 Frc consts  --      1.4294                 1.4298                 1.4497
 IR Inten    --      2.3308                13.2328                 4.2582

                     73                     74                     75
                      A                      A                      A
 Frequencies --   1522.4900              1524.0894              1532.3664
 Red. masses --      1.0648                 1.0683                 1.0611
 Frc consts  --      1.4542                 1.4620                 1.4680
 IR Inten    --     24.6415                10.2192                13.7823

                     76                     77                     78
                      A                      A                      A
 Frequencies --   1532.6818              1647.2822              2978.2523
 Red. masses --      1.0709                 6.1972                 1.0783
 Frc consts  --      1.4821                 9.9079                 5.6351
 IR Inten    --     15.5615               189.5605                23.5045

                     79                     80                     81
                      A                      A                      A
 Frequencies --   3022.1490              3033.4692              3036.3804
 Red. masses --      1.0364                 1.0348                 1.0685
 Frc consts  --      5.5770                 5.6101                 5.8043
 IR Inten    --     53.9592                45.9134                21.9359

                     82                     83                     84
                      A                      A                      A
 Frequencies --   3038.9163              3046.2099              3061.7660
 Red. masses --      1.0347                 1.0379                 1.0834
 Frc consts  --      5.6301                 5.6744                 5.9838
 IR Inten    --     48.1065                24.0964                36.6573

                     85                     86                     87
                      A                      A                      A
 Frequencies --   3075.1097              3078.9134              3095.5514
 Red. masses --      1.0858                 1.1063                 1.1063
 Frc consts  --      6.0498                 6.1788                 6.2458
 IR Inten    --     11.8071                65.4203                48.2148

                     88                     89                     90
                      A                      A                      A
 Frequencies --   3103.0581              3118.4205              3147.6352
 Red. masses --      1.1068                 1.1023                 1.0937
 Frc consts  --      6.2793                 6.3154                 6.3842
 IR Inten    --     47.8330                45.7639                 8.9648

                     91                     92                     93
                      A                      A                      A
 Frequencies --   3159.6249              3172.2629              3172.3402
 Red. masses --      1.0995                 1.1015                 1.1012
 Frc consts  --      6.4673                 6.5307                 6.5297
 IR Inten    --     27.2660                37.8695                 1.7440

                     94                     95                     96
                      A                      A                      A
 Frequencies --   3175.4288              3180.6960              3192.3433
 Red. masses --      1.0872                 1.1021                 1.0937
 Frc consts  --      6.4589                 6.5693                 6.5669
 IR Inten    --      2.6187                19.2232                 1.2482

 - Thermochemistry -
 -------------------
 Temperature   298.150 Kelvin.  Pressure   1.00000 Atm.
 Atom     1 has atomic number  6 and mass  12.00000

 Molecular mass:   219.12325 amu.
 Principal axes and moments of inertia in atomic units:
                           1         2         3
     Eigenvalues --  2317.078344341.133364710.28441
           X            1.00000  -0.00109  -0.00149
           Y            0.00106   0.99989  -0.01469
           Z            0.00151   0.01468   0.99989
 This molecule is an asymmetric top.
 Rotational symmetry number  1.
 Warning -- assumption of classical behavior for rotation
           may cause significant error
 Rotational temperatures (Kelvin)      0.03738     0.01995     0.01839
 Rotational constants (GHZ):           0.77889     0.41573     0.38315
 Zero-point vibrational energy     773210.8 (Joules/Mol)
                                  184.80183 (Kcal/Mol)
 Warning -- explicit consideration of  27 degrees of freedom as
           vibrations may cause significant error
 Vibrational temperatures:     80.33    94.31   116.39   129.78   149.93
          (Kelvin)            175.13   182.26   197.70   206.89   223.40
                              262.29   264.81   276.92   320.94   389.77
                              405.57   455.76   478.14   517.07   557.54
                              597.85   643.61   705.62   751.60   808.40
                              866.33   888.61   972.00  1114.79  1280.58
                             1333.21  1345.37  1364.76  1390.57  1426.18
                             1457.74  1503.38  1539.98  1587.70  1615.30
                             1618.29  1649.63  1672.01  1679.85  1697.58
                             1708.53  1709.82  1714.57  1749.14  1760.59
                             1763.41  1771.61  1791.05  1856.82  1890.29
                             1907.90  1929.45  1944.33  1967.34  1994.13
                             2025.41  2037.33  2077.26  2152.80  2154.49
                             2156.41  2158.87  2168.75  2172.22  2176.86
                             2179.23  2186.48  2190.52  2192.82  2204.73
                             2205.19  2370.07  4285.04  4348.20  4364.49
                             4368.67  4372.32  4382.82  4405.20  4424.40
                             4429.87  4453.81  4464.61  4486.71  4528.74
                             4546.00  4564.18  4564.29  4568.73  4576.31
                             4593.07

 Zero-point correction=                           0.294500 (Hartree/Particle)
 Thermal correction to Energy=                    0.311668
 Thermal correction to Enthalpy=                  0.312612
 Thermal correction to Gibbs Free Energy=         0.249977
 Sum of electronic and zero-point Energies=           -768.033937
 Sum of electronic and thermal Energies=              -768.016769
 Sum of electronic and thermal Enthalpies=            -768.015825
 Sum of electronic and thermal Free Energies=         -768.078460

                     E (Thermal)             CV                S
                      KCal/Mol        Cal/Mol-Kelvin    Cal/Mol-Kelvin
 Total                  195.575             61.599            131.827
 Electronic               0.000              0.000              0.000
 Translational            0.889              2.981             42.056
 Rotational               0.889              2.981             32.227
 Vibrational            193.797             55.637             57.543
 Vibration     1          0.596              1.975              4.599
 Vibration     2          0.597              1.971              4.283
 Vibration     3          0.600              1.962              3.869
 Vibration     4          0.602              1.956              3.656
 Vibration     5          0.605              1.946              3.374
 Vibration     6          0.609              1.931              3.073
 Vibration     7          0.611              1.926              2.996
 Vibration     8          0.614              1.916              2.840
 Vibration     9          0.616              1.909              2.753
 Vibration    10          0.620              1.897              2.607
 Vibration    11          0.630              1.864              2.305
 Vibration    12          0.631              1.862              2.287
 Vibration    13          0.634              1.850              2.204
 Vibration    14          0.649              1.806              1.934
 Vibration    15          0.675              1.727              1.590
 Vibration    16          0.681              1.707              1.522
 Vibration    17          0.704              1.642              1.327
 Vibration    18          0.714              1.611              1.249
 Vibration    19          0.734              1.556              1.125
 Vibration    20          0.756              1.497              1.010
 Vibration    21          0.779              1.437              0.907
 Vibration    22          0.806              1.367              0.804
 Vibration    23          0.846              1.271              0.682
 Vibration    24          0.877              1.200              0.604
 Vibration    25          0.918              1.114              0.520
 Vibration    26          0.960              1.027              0.446
 Vibration    27          0.977              0.995              0.420

                           ! Non-Optimized Parameters !
 Normal termination of Gaussian 16 at Fri May 24 08:55:18 2019.
