 Gaussian 16, Revision A.03,
 Gaussian 16:  ES64L-G16RevA.03 25-Dec-2016

 -------------------------------------------------------------------
 #p b3lyp 6-31g* opt freq=noraman scrf=(pcm,solvent=tetrahydrofuran)
 -------------------------------------------------------------------

 -----
 title
 -----
 Symbolic Z-matrix:
 Charge =  1 Multiplicity = 1

 SCF Done:  E(RB3LYP) =  -768.324119670     A.U. after   16 cycles
 Optimization completed.
    -- Stationary point found.
 Normal termination of Gaussian 16 at Fri May 24 08:39:35 2019.

 --------------------------------------------------------------------
 #P Geom=AllCheck Guess=TCheck SCRF=Check GenChk RB3LYP/6-31G(d) Freq
 --------------------------------------------------------------------

 Structure from the checkpoint file:  "/scratch/Gau-60823.chk"
 -----
 title
 -----
 Charge =  1 Multiplicity = 1

                         Standard orientation:
 ---------------------------------------------------------------------
 Center     Atomic      Atomic             Coordinates (Angstroms)
 Number     Number       Type             X           Y           Z
 ---------------------------------------------------------------------
      1          6           0        1.124262    0.488123    0.054553
      2          6           0        1.706438   -0.779008   -0.624562
      3          6           0        0.952653   -2.015036   -0.256649
      4          6           0       -1.056072   -0.823524    0.462971
      5          6           0       -0.414041    0.478230   -0.047479
      6          1           0        1.419359   -2.995312   -0.376197
      7          1           0        1.505752   -0.666466   -1.706252
      8          1           0        1.395982    0.510940    1.118578
      9          1           0       -1.096213   -0.815478    1.553640
     10          1           0       -0.688286    0.632199   -1.099246
     11          8           0       -0.224372   -2.052081    0.173311
     12          8           0        3.088193   -0.999606   -0.531213
     13          8           0        1.561428    1.644033   -0.611873
     14          8           0       -0.928660    1.502097    0.772209
     15          6           0       -2.417644   -1.188030   -0.136816
     16          1           0       -2.743117   -2.153324    0.280113
     17          1           0       -2.319065   -1.306161   -1.228181
     18          8           0       -3.306557   -0.152479    0.193871
     19          6           0        3.608189   -1.207021    0.792154
     20          1           0        3.063364   -1.999377    1.323217
     21          1           0        4.643247   -1.520385    0.655189
     22          1           0        3.583969   -0.288768    1.387188
     23          6           0        2.747854    2.254513   -0.098373
     24          1           0        3.628160    1.623835   -0.263862
     25          1           0        2.868103    3.189793   -0.648049
     26          1           0        2.644446    2.476326    0.971557
     27          6           0       -1.535451    2.593845    0.074556
     28          1           0       -0.814672    3.083346   -0.588735
     29          1           0       -2.406617    2.252427   -0.495064
     30          1           0       -1.859516    3.297361    0.844092
     31          6           0       -4.622856   -0.391529   -0.295584
     32          1           0       -4.632582   -0.467589   -1.391873
     33          1           0       -5.042557   -1.313230    0.130690
     34          1           0       -5.230023    0.460772    0.014123
 ---------------------------------------------------------------------

 SCF Done:  E(RB3LYP) =  -768.324119670     A.U. after    1 cycles

 The electronic state is 1-A.
 Alpha  occ. eigenvalues --  -19.33634 -19.21224 -19.19025 -19.18618 -19.18575
 Alpha  occ. eigenvalues --  -10.40208 -10.32226 -10.31914 -10.29421 -10.29393
 Alpha  occ. eigenvalues --  -10.27940 -10.26533 -10.24934 -10.24702 -10.24260
 Alpha  occ. eigenvalues --   -1.22229  -1.09823  -1.07991  -1.06938  -1.05935
 Alpha  occ. eigenvalues --   -0.87463  -0.85836  -0.77683  -0.75072  -0.73396
 Alpha  occ. eigenvalues --   -0.71736  -0.68398  -0.67209  -0.65961  -0.62984
 Alpha  occ. eigenvalues --   -0.60585  -0.58891  -0.55870  -0.55087  -0.53691
 Alpha  occ. eigenvalues --   -0.52203  -0.51417  -0.50771  -0.50504  -0.49126
 Alpha  occ. eigenvalues --   -0.48578  -0.47841  -0.46398  -0.45885  -0.45152
 Alpha  occ. eigenvalues --   -0.44385  -0.43284  -0.42460  -0.41095  -0.39988
 Alpha  occ. eigenvalues --   -0.39607  -0.37035  -0.35650  -0.35377  -0.35131
 Alpha  occ. eigenvalues --   -0.33019  -0.29842  -0.29023  -0.28096
 Alpha virt. eigenvalues --   -0.15746  -0.00818   0.04346   0.05356   0.06885
 Alpha virt. eigenvalues --    0.07258   0.08234   0.09365   0.09472   0.10704
 Alpha virt. eigenvalues --    0.11224   0.12021   0.12182   0.12447   0.13711

 Mulliken charges:
               1
     1  C    0.114685
     2  C    0.036985
     3  C    0.279684
     4  C    0.062444
     5  C    0.095974
     6  H    0.284112
     7  H    0.259062
     8  H    0.178552
     9  H    0.244568
    10  H    0.182238
    11  O   -0.308656
    12  O   -0.467433
    13  O   -0.482794
    14  O   -0.480976
    15  C   -0.021105
    16  H    0.173145
    17  H    0.162700
    18  O   -0.468946
    19  C   -0.245793
    20  H    0.164784
    21  H    0.204170
    22  H    0.178304
    23  C   -0.227003
    24  H    0.167849
    25  H    0.183531
    26  H    0.164134
    27  C   -0.221324
    28  H    0.164538
    29  H    0.164218
    30  H    0.175873
    31  C   -0.212054
    32  H    0.156041
    33  H    0.157613
    34  H    0.180881
 Sum of Mulliken charges =   1.00000

 Dipole moment (field-independent basis, Debye):
    X=              1.5260    Y=             -5.7129    Z=             -0.2649  Tot=              5.9191
 Quadrupole moment (field-independent basis, Debye-Ang):
   XX=            -57.2076   YY=            -67.0210   ZZ=            -85.0698
   XY=             -1.4655   XZ=              9.4169   YZ=             -0.2611

  Exact polarizability: 169.677  -4.090 149.230  -1.839  -0.151 114.226
 Approx polarizability: 173.842  -3.220 165.792  -6.558  -0.473 145.743

                      1                      2                      3
                      A                      A                      A
 Frequencies --     38.8797                60.5166                83.2121
 Red. masses --      4.0863                 3.6765                 2.8818
 Frc consts  --      0.0036                 0.0079                 0.0118
 IR Inten    --      0.7636                 1.6885                 2.6345

                      4                      5                      6
                      A                      A                      A
 Frequencies --     87.3003                98.7539               102.4409
 Red. masses --      2.4765                 2.4398                 3.0778
 Frc consts  --      0.0111                 0.0140                 0.0190
 IR Inten    --      2.7816                 6.6543                11.2474

                      7                      8                      9
                      A                      A                      A
 Frequencies --    117.8944               161.0906               165.1703
 Red. masses --      3.1680                 2.8748                 1.2444
 Frc consts  --      0.0259                 0.0440                 0.0200
 IR Inten    --      1.4984                 1.5215                 0.6102

                     10                     11                     12
                      A                      A                      A
 Frequencies --    174.5899               187.6533               196.2269
 Red. masses --      1.2335                 2.6748                 1.1332
 Frc consts  --      0.0222                 0.0555                 0.0257
 IR Inten    --      0.6793                 2.5541                 1.3460

                     13                     14                     15
                      A                      A                      A
 Frequencies --    208.4868               233.3724               272.4839
 Red. masses --      2.1741                 1.4149                 4.4720
 Frc consts  --      0.0557                 0.0454                 0.1956
 IR Inten    --      1.1075                 6.4357                 3.3149

                     16                     17                     18
                      A                      A                      A
 Frequencies --    273.8792               293.0482               311.8252
 Red. masses --      4.6363                 3.8810                 3.8600
 Frc consts  --      0.2049                 0.1964                 0.2211
 IR Inten    --     27.4170                 0.6900                 9.1641

                     19                     20                     21
                      A                      A                      A
 Frequencies --    325.9731               370.2586               391.8443
 Red. masses --      3.7808                 4.1734                 5.1774
 Frc consts  --      0.2367                 0.3371                 0.4684
 IR Inten    --      1.8882                 3.0662                 7.9150

                     22                     23                     24
                      A                      A                      A
 Frequencies --    443.5772               463.8394               493.2005
 Red. masses --      4.8323                 3.6885                 3.5750
 Frc consts  --      0.5602                 0.4676                 0.5124
 IR Inten    --      0.5403                20.9552                15.6269

                     25                     26                     27
                      A                      A                      A
 Frequencies --    526.9334               563.5444               611.0466
 Red. masses --      4.3749                 3.1112                 2.6955
 Frc consts  --      0.7157                 0.5821                 0.5930
 IR Inten    --     16.8951                 6.3445                12.3041

                     28                     29                     30
                      A                      A                      A
 Frequencies --    706.7377               797.6702               828.8228
 Red. masses --      4.6423                 6.0053                 2.1815
 Frc consts  --      1.3661                 2.2513                 0.8830
 IR Inten    --     49.9137                63.4755                37.9772

                     31                     32                     33
                      A                      A                      A
 Frequencies --    928.2026               936.4503               976.5483
 Red. masses --      3.5284                 2.3503                 3.3466
 Frc consts  --      1.7911                 1.2143                 1.8804
 IR Inten    --     34.0152                 0.4098                25.3313

                     34                     35                     36
                      A                      A                      A
 Frequencies --    999.3111              1016.5333              1042.4163
 Red. masses --      3.9232                 4.3814                 2.5432
 Frc consts  --      2.3083                 2.6675                 1.6282
 IR Inten    --     27.5017                56.9135                28.7484

                     37                     38                     39
                      A                      A                      A
 Frequencies --   1070.4520              1095.4307              1123.9519
 Red. masses --      4.0233                 2.7098                 2.8526
 Frc consts  --      2.7162                 1.9158                 2.1232
 IR Inten    --     20.4960                36.5415               168.1977

                     40                     41                     42
                      A                      A                      A
 Frequencies --   1143.2132              1148.9532              1161.5413
 Red. masses --      3.0792                 2.9831                 3.7453
 Frc consts  --      2.3711                 2.3202                 2.9772
 IR Inten    --    122.3543                14.0340               309.0500

                     43                     44                     45
                      A                      A                      A
 Frequencies --   1166.4048              1172.3552              1179.9694
 Red. masses --      3.5112                 2.9585                 1.2914
 Frc consts  --      2.8145                 2.3958                 1.0594
 IR Inten    --    164.2139                79.5578                10.3890

                     46                     47                     48
                      A                      A                      A
 Frequencies --   1181.8893              1189.0033              1191.2154
 Red. masses --      1.2602                 1.2982                 1.3075
 Frc consts  --      1.0372                 1.0813                 1.0931
 IR Inten    --      3.1933                19.6275                 3.8167

                     49                     50                     51
                      A                      A                      A
 Frequencies --   1223.0445              1229.6677              1233.3126
 Red. masses --      1.5333                 1.6484                 1.5025
 Frc consts  --      1.3513                 1.4685                 1.3465
 IR Inten    --     17.7133                43.6225                35.2729

                     52                     53                     54
                      A                      A                      A
 Frequencies --   1237.6742              1249.8595              1268.8754
 Red. masses --      1.7117                 1.5618                 1.4703
 Frc consts  --      1.5449                 1.4375                 1.3947
 IR Inten    --     25.4003                 6.0251                32.0863

                     55                     56                     57
                      A                      A                      A
 Frequencies --   1290.6473              1309.9739              1342.7774
 Red. masses --      1.2898                 1.2106                 1.2454
 Frc consts  --      1.2659                 1.2240                 1.3230
 IR Inten    --     40.2209                 5.0934                 4.1646

                     58                     59                     60
                      A                      A                      A
 Frequencies --   1357.4470              1382.0805              1407.3017
 Red. masses --      1.2083                 1.3340                 1.3525
 Frc consts  --      1.3118                 1.5013                 1.5782
 IR Inten    --      7.7351                 3.5135                35.1406

                     61                     62                     63
                      A                      A                      A
 Frequencies --   1414.8851              1429.1953              1445.9567
 Red. masses --      1.3668                 1.2828                 1.3519
 Frc consts  --      1.6121                 1.5439                 1.6654
 IR Inten    --     28.5019                19.2763                35.9957

                     64                     65                     66
                      A                      A                      A
 Frequencies --   1494.5575              1498.9258              1500.9826
 Red. masses --      1.1681                 1.1212                 1.1159
 Frc consts  --      1.5373                 1.4842                 1.4813
 IR Inten    --      2.1166                 1.1333                 6.2504

                     67                     68                     69
                      A                      A                      A
 Frequencies --   1501.1902              1508.8019              1512.3650
 Red. masses --      1.1530                 1.0475                 1.0706
 Frc consts  --      1.5309                 1.4050                 1.4427
 IR Inten    --      0.6781                 9.1761                 2.0367

                     70                     71                     72
                      A                      A                      A
 Frequencies --   1514.9092              1515.6096              1526.2506
 Red. masses --      1.0584                 1.0579                 1.0509
 Frc consts  --      1.4311                 1.4318                 1.4423
 IR Inten    --      5.8271                 7.9974                15.5206

                     73                     74                     75
                      A                      A                      A
 Frequencies --   1528.0583              1531.4414              1542.9225
 Red. masses --      1.0627                 1.0482                 1.0671
 Frc consts  --      1.4620                 1.4484                 1.4967
 IR Inten    --      3.7030                21.8412                10.7065

                     76                     77                     78
                      A                      A                      A
 Frequencies --   1559.7072              1652.5560              2974.2008
 Red. masses --      1.0856                 7.6639                 1.0795
 Frc consts  --      1.5559                12.3314                 5.6262
 IR Inten    --      1.6025               261.4100                25.7459

                     79                     80                     81
                      A                      A                      A
 Frequencies --   3004.0873              3021.5656              3037.0797
 Red. masses --      1.0549                 1.0358                 1.0460
 Frc consts  --      5.6090                 5.5717                 5.6847
 IR Inten    --     39.6408                72.8511                29.3582

                     82                     83                     84
                      A                      A                      A
 Frequencies --   3038.9582              3043.4592              3043.9504
 Red. masses --      1.0400                 1.1047                 1.0742
 Frc consts  --      5.6587                 6.0290                 5.8645
 IR Inten    --     42.2361                59.4000                29.8978

                     85                     86                     87
                      A                      A                      A
 Frequencies --   3051.6702              3056.7228              3077.3514
 Red. masses --      1.0443                 1.0714                 1.1067
 Frc consts  --      5.7302                 5.8983                 6.1749
 IR Inten    --     30.4320                48.9690                50.4085

                     88                     89                     90
                      A                      A                      A
 Frequencies --   3109.9639              3119.5088              3126.2647
 Red. masses --      1.1048                 1.0963                 1.1080
 Frc consts  --      6.2956                 6.2857                 6.3801
 IR Inten    --     45.4402                41.8851                35.8803

                     91                     92                     93
                      A                      A                      A
 Frequencies --   3152.4950              3161.7972              3162.5088
 Red. masses --      1.0871                 1.1040                 1.0998
 Frc consts  --      6.3652                 6.5028                 6.4805
 IR Inten    --      1.3384                21.6456                28.2699

                     94                     95                     96
                      A                      A                      A
 Frequencies --   3163.1860              3182.6613              3188.2411
 Red. masses --      1.1022                 1.1022                 1.0938
 Frc consts  --      6.4978                 6.5780                 6.5506
 IR Inten    --     25.2647                13.9120                 1.7395

 - Thermochemistry -
 -------------------
 Temperature   298.150 Kelvin.  Pressure   1.00000 Atm.
 Atom     1 has atomic number  6 and mass  12.00000

 Molecular mass:   219.12325 amu.
 Principal axes and moments of inertia in atomic units:
                           1         2         3
     Eigenvalues --  1920.042364622.248496139.39531
           X            0.99988   0.00599   0.01443
           Y           -0.00593   0.99997  -0.00430
           Z           -0.01446   0.00422   0.99989
 This molecule is an asymmetric top.
 Rotational symmetry number  1.
 Warning -- assumption of classical behavior for rotation
           may cause significant error
 Rotational temperatures (Kelvin)      0.04511     0.01874     0.01411
 Rotational constants (GHZ):           0.93995     0.39045     0.29396
 Zero-point vibrational energy     773031.4 (Joules/Mol)
                                  184.75895 (Kcal/Mol)
 Warning -- explicit consideration of  27 degrees of freedom as
           vibrations may cause significant error
 Vibrational temperatures:     55.94    87.07   119.72   125.61   142.08
          (Kelvin)            147.39   169.62   231.77   237.64   251.20
                              269.99   282.33   299.97   335.77   392.04
                              394.05   421.63   448.65   469.00   532.72
                              563.78   638.21   667.36   709.61   758.14
                              810.81   879.16  1016.84  1147.67  1192.49
                             1335.48  1347.34  1405.04  1437.79  1462.56
                             1499.80  1540.14  1576.08  1617.12  1644.83
                             1653.09  1671.20  1678.20  1686.76  1697.71
                             1700.48  1710.71  1713.89  1759.69  1769.22
                             1774.46  1780.74  1798.27  1825.63  1856.95
                             1884.76  1931.96  1953.06  1988.51  2024.79
                             2035.70  2056.29  2080.41  2150.33  2156.62
                             2159.58  2159.88  2170.83  2175.96  2179.62
                             2180.62  2195.93  2198.54  2203.40  2219.92
                             2244.07  2377.66  4279.21  4322.21  4347.36
                             4369.68  4372.38  4378.86  4379.57  4390.67
                             4397.94  4427.62  4474.54  4488.28  4498.00
                             4535.74  4549.12  4550.14  4551.12  4579.14
                             4587.17

 Zero-point correction=                           0.294432 (Hartree/Particle)
 Thermal correction to Energy=                    0.311726
 Thermal correction to Enthalpy=                  0.312671
 Thermal correction to Gibbs Free Energy=         0.249465
 Sum of electronic and zero-point Energies=           -768.029688
 Sum of electronic and thermal Energies=              -768.012393
 Sum of electronic and thermal Enthalpies=            -768.011449
 Sum of electronic and thermal Free Energies=         -768.074655

                     E (Thermal)             CV                S
                      KCal/Mol        Cal/Mol-Kelvin    Cal/Mol-Kelvin
 Total                  195.611             61.775            133.028
 Electronic               0.000              0.000              0.000
 Translational            0.889              2.981             42.056
 Rotational               0.889              2.981             32.366
 Vibrational            193.834             55.814             58.605
 Vibration     1          0.594              1.981              5.315
 Vibration     2          0.597              1.973              4.440
 Vibration     3          0.600              1.961              3.814
 Vibration     4          0.601              1.958              3.720
 Vibration     5          0.604              1.950              3.479
 Vibration     6          0.605              1.947              3.407
 Vibration     7          0.608              1.934              3.135
 Vibration     8          0.622              1.890              2.537
 Vibration     9          0.624              1.885              2.490
 Vibration    10          0.627              1.874              2.385
 Vibration    11          0.632              1.857              2.251
 Vibration    12          0.636              1.845              2.168
 Vibration    13          0.642              1.828              2.057
 Vibration    14          0.654              1.790              1.853
 Vibration    15          0.675              1.724              1.580
 Vibration    16          0.676              1.722              1.572
 Vibration    17          0.688              1.687              1.456
 Vibration    18          0.700              1.651              1.353
 Vibration    19          0.710              1.624              1.280
 Vibration    20          0.742              1.533              1.079
 Vibration    21          0.759              1.488              0.993
 Vibration    22          0.803              1.375              0.815
 Vibration    23          0.821              1.330              0.755
 Vibration    24          0.849              1.265              0.675
 Vibration    25          0.882              1.190              0.594
 Vibration    26          0.919              1.110              0.517
 Vibration    27          0.970              1.008              0.431

 Optimization completed.
    -- Stationary point found.
 Normal termination of Gaussian 16 at Fri May 24 09:25:37 2019.
