 Gaussian 16, Revision A.03,
 Gaussian 16:  ES64L-G16RevA.03 25-Dec-2016

 -------------------------------------------------------------------
 #p b3lyp 6-31g* opt freq=noraman scrf=(pcm,solvent=tetrahydrofuran)
 -------------------------------------------------------------------

 -----
 title
 -----
 Symbolic Z-matrix:
 Charge =  1 Multiplicity = 1

 SCF Done:  E(RB3LYP) =  -768.317588163     A.U. after   16 cycles
 Optimization completed.
    -- Stationary point found.
 Normal termination of Gaussian 16 at Fri May 24 08:33:30 2019.

 --------------------------------------------------------------------
 #P Geom=AllCheck Guess=TCheck SCRF=Check GenChk RB3LYP/6-31G(d) Freq
 --------------------------------------------------------------------

 Structure from the checkpoint file:  "/scratch/Gau-144273.chk"
 -----
 title
 -----
 Charge =  1 Multiplicity = 1

                         Standard orientation:
 ---------------------------------------------------------------------
 Center     Atomic      Atomic             Coordinates (Angstroms)
 Number     Number       Type             X           Y           Z
 ---------------------------------------------------------------------
      1          6           0        1.114806    0.953827    0.497129
      2          6           0        2.027690   -0.246161    0.091385
      3          6           0        1.629167   -0.736360   -1.264339
      4          6           0       -0.673881   -0.650603   -0.550123
      5          6           0       -0.393686    0.630276    0.260041
      6          1           0        2.323694   -0.965712   -2.073750
      7          1           0        3.080493    0.050445    0.107024
      8          1           0        1.252270    1.042536    1.577795
      9          1           0       -0.652586   -1.506810    0.123940
     10          1           0       -0.851480    1.483250   -0.257435
     11          8           0        0.420020   -0.948901   -1.544739
     12          8           0        1.738356   -1.293930    1.002712
     13          8           0        1.561408    2.170126   -0.046954
     14          8           0       -1.051606    0.390529    1.489531
     15          6           0       -1.935826   -0.591692   -1.431327
     16          1           0       -2.103340   -1.578856   -1.885606
     17          1           0       -1.764351    0.133378   -2.233890
     18          8           0       -3.057338   -0.143918   -0.716298
     19          6           0        2.795149   -2.256052    1.182232
     20          1           0        2.962614   -2.851482    0.278202
     21          1           0        3.723635   -1.753713    1.474872
     22          1           0        2.457474   -2.907765    1.988555
     23          6           0        1.532409    2.297627   -1.459624
     24          1           0        2.164140    1.534353   -1.950766
     25          1           0        0.517695    2.235020   -1.871719
     26          1           0        1.951899    3.276986   -1.693664
     27          6           0       -1.622569    1.559586    2.080544
     28          1           0       -2.376235    2.000361    1.416375
     29          1           0       -2.097563    1.231750    3.006668
     30          1           0       -0.856808    2.310239    2.314831
     31          6           0       -3.659742   -1.129494    0.123943
     32          1           0       -3.023895   -1.372585    0.982939
     33          1           0       -4.593762   -0.694320    0.484779
     34          1           0       -3.881725   -2.044043   -0.442339
 ---------------------------------------------------------------------

 SCF Done:  E(RB3LYP) =  -768.317588163     A.U. after    1 cycles

 The electronic state is 1-A.
 Alpha  occ. eigenvalues --  -19.33011 -19.22057 -19.20291 -19.18987 -19.18396
 Alpha  occ. eigenvalues --  -10.39599 -10.31692 -10.31477 -10.29655 -10.29359
 Alpha  occ. eigenvalues --  -10.27546 -10.26852 -10.26497 -10.24823 -10.24336
 Alpha  occ. eigenvalues --   -1.21735  -1.09940  -1.08566  -1.07262  -1.06261
 Alpha  occ. eigenvalues --   -0.86800  -0.85168  -0.77116  -0.75428  -0.74420
 Alpha  occ. eigenvalues --   -0.71570  -0.69316  -0.67605  -0.65819  -0.61314
 Alpha  occ. eigenvalues --   -0.60720  -0.58789  -0.57517  -0.54693  -0.53360
 Alpha  occ. eigenvalues --   -0.52037  -0.50959  -0.50875  -0.50343  -0.49680
 Alpha  occ. eigenvalues --   -0.48600  -0.47985  -0.47526  -0.46168  -0.45630
 Alpha  occ. eigenvalues --   -0.44087  -0.43613  -0.42635  -0.40793  -0.40655
 Alpha  occ. eigenvalues --   -0.39598  -0.37785  -0.36189  -0.35624  -0.34298
 Alpha  occ. eigenvalues --   -0.33339  -0.31364  -0.29234  -0.28127
 Alpha virt. eigenvalues --   -0.16095   0.00185   0.04056   0.04817   0.06694
 Alpha virt. eigenvalues --    0.06797   0.07847   0.08929   0.09895   0.10698
 Alpha virt. eigenvalues --    0.10893   0.11382   0.12137   0.12796   0.12908

 Mulliken charges:
               1
     1  C    0.099649
     2  C    0.022540
     3  C    0.265405
     4  C    0.048045
     5  C    0.100898
     6  H    0.284434
     7  H    0.218363
     8  H    0.219015
     9  H    0.246113
    10  H    0.188831
    11  O   -0.308492
    12  O   -0.464417
    13  O   -0.457830
    14  O   -0.484303
    15  C   -0.048093
    16  H    0.174117
    17  H    0.185473
    18  O   -0.463047
    19  C   -0.229915
    20  H    0.174166
    21  H    0.181369
    22  H    0.201726
    23  C   -0.247299
    24  H    0.150571
    25  H    0.175015
    26  H    0.208280
    27  C   -0.226135
    28  H    0.167827
    29  H    0.182930
    30  H    0.162380
    31  C   -0.224124
    32  H    0.162862
    33  H    0.178324
    34  H    0.155322
 Sum of Mulliken charges =   1.00000

 Dipole moment (field-independent basis, Debye):
    X=              5.4232    Y=             -2.8121    Z=             -3.5604  Tot=              7.0707
 Quadrupole moment (field-independent basis, Debye-Ang):
   XX=            -61.4493   YY=            -74.4611   ZZ=            -75.2552
   XY=             -5.2782   XZ=             -8.0859   YZ=              0.0101

  Exact polarizability: 156.744  -0.385 142.485  -6.626  -1.619 137.824
 Approx polarizability: 168.527   1.622 166.227  -6.426   0.498 164.541

                      1                      2                      3
                      A                      A                      A
 Frequencies --     39.5408                61.2363                67.3926
 Red. masses --      3.6177                 2.5533                 3.5376
 Frc consts  --      0.0033                 0.0056                 0.0095
 IR Inten    --      1.0709                 2.8543                 0.3092

                      4                      5                      6
                      A                      A                      A
 Frequencies --     79.0435               102.9963               128.2631
 Red. masses --      3.0314                 2.8604                 2.3609
 Frc consts  --      0.0112                 0.0179                 0.0229
 IR Inten    --      1.8130                 8.7273                 3.3226

                      7                      8                      9
                      A                      A                      A
 Frequencies --    141.5421               152.8618               164.2260
 Red. masses --      2.0303                 1.7780                 2.5837
 Frc consts  --      0.0240                 0.0245                 0.0411
 IR Inten    --      0.6129                 2.4451                 2.6319

                     10                     11                     12
                      A                      A                      A
 Frequencies --    182.3234               190.1898               212.9268
 Red. masses --      1.3176                 1.8781                 2.2493
 Frc consts  --      0.0258                 0.0400                 0.0601
 IR Inten    --      1.0435                 1.5085                 6.9398

                     13                     14                     15
                      A                      A                      A
 Frequencies --    229.9470               256.4260               266.1659
 Red. masses --      2.6237                 3.1573                 1.4690
 Frc consts  --      0.0817                 0.1223                 0.0613
 IR Inten    --      5.6840                 7.5668                20.0106

                     16                     17                     18
                      A                      A                      A
 Frequencies --    307.5659               314.0549               327.7658
 Red. masses --      3.6959                 3.5138                 3.1749
 Frc consts  --      0.2060                 0.2042                 0.2010
 IR Inten    --      1.2985                 2.6704                24.3894

                     19                     20                     21
                      A                      A                      A
 Frequencies --    360.6742               401.0667               408.5795
 Red. masses --      3.0672                 3.8037                 3.7479
 Frc consts  --      0.2351                 0.3605                 0.3686
 IR Inten    --     11.9713                33.0640                10.1289

                     22                     23                     24
                      A                      A                      A
 Frequencies --    426.0300               473.8636               506.6802
 Red. masses --      3.0934                 3.1629                 6.5679
 Frc consts  --      0.3308                 0.4184                 0.9934
 IR Inten    --     14.6992                 7.7471                 0.2796

                     25                     26                     27
                      A                      A                      A
 Frequencies --    524.1768               559.3818               602.6703
 Red. masses --      2.7945                 4.1323                 4.3612
 Frc consts  --      0.4524                 0.7618                 0.9333
 IR Inten    --     11.4136                25.7672                14.7318

                     28                     29                     30
                      A                      A                      A
 Frequencies --    800.0202               855.5955               874.8261
 Red. masses --      6.5732                 4.8680                 3.7084
 Frc consts  --      2.4787                 2.0996                 1.6722
 IR Inten    --     62.0864                53.1923                14.2750

                     31                     32                     33
                      A                      A                      A
 Frequencies --    906.1416               924.0444               944.1569
 Red. masses --      2.6017                 2.7686                 3.7229
 Frc consts  --      1.2586                 1.3928                 1.9553
 IR Inten    --     11.0597                65.2525                32.8471

                     34                     35                     36
                      A                      A                      A
 Frequencies --    961.3091               983.2959              1012.5264
 Red. masses --      3.1131                 3.9330                 3.9862
 Frc consts  --      1.6950                 2.2405                 2.4078
 IR Inten    --     74.0843                 8.5454                40.2599

                     37                     38                     39
                      A                      A                      A
 Frequencies --   1020.3564              1086.9752              1109.1695
 Red. masses --      2.5148                 3.0739                 2.9532
 Frc consts  --      1.5426                 2.1398                 2.1406
 IR Inten    --     24.2057                41.3119                88.8828

                     40                     41                     42
                      A                      A                      A
 Frequencies --   1112.2489              1134.4580              1137.7387
 Red. masses --      3.1203                 3.9993                 3.1490
 Frc consts  --      2.2743                 3.0325                 2.4016
 IR Inten    --    113.4387               140.2055                56.5121

                     43                     44                     45
                      A                      A                      A
 Frequencies --   1151.7111              1165.5340              1182.3844
 Red. masses --      3.0391                 2.8436                 1.3335
 Frc consts  --      2.3751                 2.2760                 1.0984
 IR Inten    --    161.2874                31.6933                37.5238

                     46                     47                     48
                      A                      A                      A
 Frequencies --   1185.4721              1187.0105              1188.2102
 Red. masses --      1.2959                 1.2988                 1.3088
 Frc consts  --      1.0730                 1.0782                 1.0887
 IR Inten    --      2.3603                 3.5397                12.9486

                     49                     50                     51
                      A                      A                      A
 Frequencies --   1214.4898              1222.4715              1232.8743
 Red. masses --      1.4276                 1.6087                 1.5859
 Frc consts  --      1.2406                 1.4164                 1.4203
 IR Inten    --      9.4418                69.5438                75.3189

                     52                     53                     54
                      A                      A                      A
 Frequencies --   1238.7553              1242.8897              1294.0346
 Red. masses --      1.7346                 1.4549                 1.4127
 Frc consts  --      1.5683                 1.3241                 1.3938
 IR Inten    --     37.4580                28.6713                25.6486

                     55                     56                     57
                      A                      A                      A
 Frequencies --   1320.5618              1337.4875              1349.7086
 Red. masses --      1.1867                 1.2322                 1.2337
 Frc consts  --      1.2193                 1.2987                 1.3241
 IR Inten    --     20.0928                10.4888                 1.8476

                     58                     59                     60
                      A                      A                      A
 Frequencies --   1359.0177              1379.6937              1389.4147
 Red. masses --      1.2026                 1.3220                 1.3576
 Frc consts  --      1.3087                 1.4827                 1.5441
 IR Inten    --      1.1964                32.5236                 7.0800

                     61                     62                     63
                      A                      A                      A
 Frequencies --   1414.4727              1428.3392              1443.4170
 Red. masses --      1.3116                 1.3705                 1.2651
 Frc consts  --      1.5461                 1.6474                 1.5529
 IR Inten    --     16.7066                11.6595                24.4030

                     64                     65                     66
                      A                      A                      A
 Frequencies --   1493.5975              1496.4369              1497.9905
 Red. masses --      1.1124                 1.1396                 1.1174
 Frc consts  --      1.4621                 1.5035                 1.4774
 IR Inten    --      3.6129                 3.0185                 1.3353

                     67                     68                     69
                      A                      A                      A
 Frequencies --   1502.4393              1512.7696              1513.7643
 Red. masses --      1.0883                 1.0574                 1.0656
 Frc consts  --      1.4474                 1.4257                 1.4386
 IR Inten    --      5.2071                12.7916                 0.6325

                     70                     71                     72
                      A                      A                      A
 Frequencies --   1518.2788              1518.7163              1521.6966
 Red. masses --      1.0961                 1.0823                 1.0692
 Frc consts  --      1.4886                 1.4708                 1.4587
 IR Inten    --      4.7245                12.7204                12.4289

                     73                     74                     75
                      A                      A                      A
 Frequencies --   1523.1638              1524.5265              1530.6766
 Red. masses --      1.0562                 1.0575                 1.0463
 Frc consts  --      1.4437                 1.4481                 1.4444
 IR Inten    --     16.8527                17.7980                 9.4144

                     76                     77                     78
                      A                      A                      A
 Frequencies --   1550.6034              1627.7191              2959.7708
 Red. masses --      1.0711                 5.7126                 1.0566
 Frc consts  --      1.5174                 8.9175                 5.4535
 IR Inten    --      8.0081               195.4173               128.0099

                     79                     80                     81
                      A                      A                      A
 Frequencies --   3031.9651              3034.2176              3035.9429
 Red. masses --      1.0458                 1.0358                 1.0534
 Frc consts  --      5.6644                 5.6183                 5.7203
 IR Inten    --     41.4249                76.9937                40.4308

                     82                     83                     84
                      A                      A                      A
 Frequencies --   3052.2744              3053.8735              3076.9273
 Red. masses --      1.0341                 1.0813                 1.0815
 Frc consts  --      5.6763                 5.9415                 6.0329
 IR Inten    --     66.4626                13.6520                49.9211

                     85                     86                     87
                      A                      A                      A
 Frequencies --   3098.5943              3101.8828              3113.2446
 Red. masses --      1.1069                 1.1035                 1.0980
 Frc consts  --      6.2618                 6.2556                 6.2701
 IR Inten    --     52.3195                39.9837                32.7308

                     88                     89                     90
                      A                      A                      A
 Frequencies --   3115.4632              3118.1828              3125.2231
 Red. masses --      1.0872                 1.0894                 1.1058
 Frc consts  --      6.2175                 6.2406                 6.3632
 IR Inten    --     10.5476                11.5447                21.4537

                     91                     92                     93
                      A                      A                      A
 Frequencies --   3158.0926              3165.2961              3165.8230
 Red. masses --      1.1015                 1.0881                 1.1002
 Frc consts  --      6.4724                 6.4233                 6.4967
 IR Inten    --     26.7255                 2.1785                23.1944

                     94                     95                     96
                      A                      A                      A
 Frequencies --   3170.4570              3182.8367              3199.0971
 Red. masses --      1.0983                 1.1029                 1.0947
 Frc consts  --      6.5043                 6.5829                 6.6008
 IR Inten    --     15.3403                 9.6771                 2.7424

 - Thermochemistry -
 -------------------
 Temperature   298.150 Kelvin.  Pressure   1.00000 Atm.
 Atom     1 has atomic number  6 and mass  12.00000

 Molecular mass:   219.12325 amu.
 Principal axes and moments of inertia in atomic units:
                           1         2         3
     Eigenvalues --  2423.545804046.203874374.50674
           X            0.99989  -0.00792  -0.01220
           Y            0.00726   0.99852  -0.05381
           Z            0.01261   0.05372   0.99848
 This molecule is an asymmetric top.
 Rotational symmetry number  1.
 Warning -- assumption of classical behavior for rotation
           may cause significant error
 Rotational temperatures (Kelvin)      0.03574     0.02141     0.01980
 Rotational constants (GHZ):           0.74467     0.44603     0.41256
 Zero-point vibrational energy     775000.4 (Joules/Mol)
                                  185.22954 (Kcal/Mol)
 Warning -- explicit consideration of  27 degrees of freedom as
           vibrations may cause significant error
 Vibrational temperatures:     56.89    88.11    96.96   113.73   148.19
          (Kelvin)            184.54   203.65   219.93   236.28   262.32
                              273.64   306.35   330.84   368.94   382.95
                              442.52   451.85   471.58   518.93   577.05
                              587.85   612.96   681.78   729.00   754.17
                              804.83   867.11  1151.05  1231.01  1258.68
                             1303.74  1329.49  1358.43  1383.11  1414.74
                             1456.80  1468.07  1563.91  1595.85  1600.28
                             1632.23  1636.95  1657.06  1676.94  1701.19
                             1705.63  1707.84  1709.57  1747.38  1758.86
                             1773.83  1782.29  1788.24  1861.83  1899.99
                             1924.35  1941.93  1955.32  1985.07  1999.06
                             2035.11  2055.06  2076.76  2148.95  2153.04
                             2155.27  2161.67  2176.54  2177.97  2184.46
                             2185.09  2189.38  2191.49  2193.45  2202.30
                             2230.97  2341.92  4258.45  4362.32  4365.56
                             4368.04  4391.54  4393.84  4427.01  4458.19
                             4462.92  4479.26  4482.46  4486.37  4496.50
                             4543.79  4554.16  4554.91  4561.58  4579.39
                             4602.79

 Zero-point correction=                           0.295182 (Hartree/Particle)
 Thermal correction to Energy=                    0.312154
 Thermal correction to Enthalpy=                  0.313098
 Thermal correction to Gibbs Free Energy=         0.250734
 Sum of electronic and zero-point Energies=           -768.022406
 Sum of electronic and thermal Energies=              -768.005434
 Sum of electronic and thermal Enthalpies=            -768.004490
 Sum of electronic and thermal Free Energies=         -768.066854

                     E (Thermal)             CV                S
                      KCal/Mol        Cal/Mol-Kelvin    Cal/Mol-Kelvin
 Total                  195.880             61.364            131.255
 Electronic               0.000              0.000              0.000
 Translational            0.889              2.981             42.056
 Rotational               0.889              2.981             32.128
 Vibrational            194.102             55.403             57.071
 Vibration     1          0.594              1.981              5.282
 Vibration     2          0.597              1.973              4.417
 Vibration     3          0.598              1.970              4.228
 Vibration     4          0.600              1.963              3.914
 Vibration     5          0.605              1.947              3.397
 Vibration     6          0.611              1.925              2.972
 Vibration     7          0.615              1.912              2.783
 Vibration     8          0.619              1.899              2.636
 Vibration     9          0.623              1.886              2.501
 Vibration    10          0.630              1.864              2.304
 Vibration    11          0.634              1.853              2.226
 Vibration    12          0.644              1.821              2.018
 Vibration    13          0.652              1.795              1.879
 Vibration    14          0.666              1.752              1.686
 Vibration    15          0.672              1.735              1.621
 Vibration    16          0.697              1.659              1.375
 Vibration    17          0.702              1.647              1.341
 Vibration    18          0.711              1.620              1.271
 Vibration    19          0.735              1.553              1.119
 Vibration    20          0.767              1.468              0.959
 Vibration    21          0.773              1.452              0.932
 Vibration    22          0.788              1.414              0.872
 Vibration    23          0.831              1.308              0.727
 Vibration    24          0.862              1.235              0.642
 Vibration    25          0.879              1.196              0.600
 Vibration    26          0.915              1.119              0.525
 Vibration    27          0.961              1.026              0.445

 Optimization completed.
    -- Stationary point found.
 Normal termination of Gaussian 16 at Fri May 24 08:54:04 2019.
