 Gaussian 16, Revision A.03,
 Gaussian 16:  ES64L-G16RevA.03 25-Dec-2016

 -------------------------------------------------------------------
 #p b3lyp 6-31g* opt freq=noraman scrf=(pcm,solvent=tetrahydrofuran)
 -------------------------------------------------------------------

 -----
 title
 -----
 Symbolic Z-matrix:
 Charge =  1 Multiplicity = 1

 SCF Done:  E(RB3LYP) =  -768.319070220     A.U. after   14 cycles
 Optimization completed.
    -- Stationary point found.
 Normal termination of Gaussian 16 at Fri May 24 08:37:27 2019.

 --------------------------------------------------------------------
 #P Geom=AllCheck Guess=TCheck SCRF=Check GenChk RB3LYP/6-31G(d) Freq
 --------------------------------------------------------------------

 Structure from the checkpoint file:  "/scratch/Gau-36652.chk"
 -----
 title
 -----
 Charge =  1 Multiplicity = 1

                         Standard orientation:
 ---------------------------------------------------------------------
 Center     Atomic      Atomic             Coordinates (Angstroms)
 Number     Number       Type             X           Y           Z
 ---------------------------------------------------------------------
      1          6           0        1.032450    0.549937    0.362208
      2          6           0        1.808546   -0.697876   -0.127959
      3          6           0        0.912572   -1.879293   -0.343665
      4          6           0       -1.155821   -0.619541   -0.091516
      5          6           0       -0.293428    0.612016   -0.433767
      6          1           0        1.351218   -2.869979   -0.466990
      7          1           0        2.284934   -0.476196   -1.096742
      8          1           0        0.821936    0.392799    1.425516
      9          1           0       -1.385072   -0.682947    0.973996
     10          1           0       -0.075264    0.562471   -1.508716
     11          8           0       -0.345171   -1.875191   -0.313456
     12          8           0        2.739980   -1.130751    0.835113
     13          8           0        1.813494    1.713958    0.322528
     14          8           0       -1.025022    1.799118   -0.285487
     15          6           0       -2.447939   -0.768625   -0.912366
     16          1           0       -2.637154   -1.835991   -1.092193
     17          1           0       -2.336945   -0.267510   -1.877999
     18          8           0       -3.521556   -0.150368   -0.241039
     19          6           0        4.057775   -1.410123    0.336594
     20          1           0        4.660828   -1.656683    1.210790
     21          1           0        4.056440   -2.260141   -0.355948
     22          1           0        4.468556   -0.525952   -0.164442
     23          6           0        2.060841    2.306366   -0.956256
     24          1           0        2.737160    3.140804   -0.764749
     25          1           0        2.554663    1.611788   -1.649158
     26          1           0        1.137863    2.683675   -1.407407
     27          6           0       -1.345920    2.224533    1.045952
     28          1           0       -0.443069    2.406757    1.636997
     29          1           0       -1.997919    1.506982    1.556137
     30          1           0       -1.888175    3.163082    0.923225
     31          6           0       -4.200548   -1.002514    0.679003
     32          1           0       -3.543988   -1.349603    1.489673
     33          1           0       -5.008534   -0.409556    1.111331
     34          1           0       -4.622439   -1.877213    0.166043
 ---------------------------------------------------------------------

 SCF Done:  E(RB3LYP) =  -768.319070220     A.U. after    1 cycles

 The electronic state is 1-A.
 Alpha  occ. eigenvalues --  -19.33319 -19.21767 -19.19639 -19.19279 -19.18545
 Alpha  occ. eigenvalues --  -10.39851 -10.32043 -10.31985 -10.29832 -10.29522
 Alpha  occ. eigenvalues --  -10.27780 -10.26360 -10.25146 -10.24993 -10.24852
 Alpha  occ. eigenvalues --   -1.21802  -1.10062  -1.08415  -1.06757  -1.06327
 Alpha  occ. eigenvalues --   -0.87118  -0.85969  -0.77151  -0.75709  -0.74164
 Alpha  occ. eigenvalues --   -0.71845  -0.69102  -0.68006  -0.65570  -0.62372
 Alpha  occ. eigenvalues --   -0.60545  -0.59092  -0.55871  -0.55368  -0.53350
 Alpha  occ. eigenvalues --   -0.52840  -0.51624  -0.51111  -0.50508  -0.49479
 Alpha  occ. eigenvalues --   -0.48478  -0.48022  -0.46180  -0.46112  -0.45245
 Alpha  occ. eigenvalues --   -0.43740  -0.43657  -0.42943  -0.41432  -0.40950
 Alpha  occ. eigenvalues --   -0.40219  -0.37841  -0.35840  -0.34941  -0.34509
 Alpha  occ. eigenvalues --   -0.32425  -0.30928  -0.29775  -0.28332
 Alpha virt. eigenvalues --   -0.15439  -0.00963   0.04363   0.04879   0.06143
 Alpha virt. eigenvalues --    0.06441   0.07474   0.08473   0.09488   0.10374
 Alpha virt. eigenvalues --    0.11007   0.11517   0.12022   0.12513   0.13408

 Mulliken charges:
               1
     1  C    0.118633
     2  C    0.029800
     3  C    0.300965
     4  C    0.067557
     5  C    0.072084
     6  H    0.277327
     7  H    0.229972
     8  H    0.193538
     9  H    0.233979
    10  H    0.189113
    11  O   -0.318035
    12  O   -0.463332
    13  O   -0.478623
    14  O   -0.471664
    15  C   -0.054971
    16  H    0.179349
    17  H    0.192918
    18  O   -0.461823
    19  C   -0.234718
    20  H    0.199812
    21  H    0.174700
    22  H    0.183279
    23  C   -0.242037
    24  H    0.189122
    25  H    0.154962
    26  H    0.177856
    27  C   -0.239017
    28  H    0.173972
    29  H    0.163356
    30  H    0.189105
    31  C   -0.224906
    32  H    0.151402
    33  H    0.184155
    34  H    0.162173
 Sum of Mulliken charges =   1.00000

 Dipole moment (field-independent basis, Debye):
    X=              3.2278    Y=             -6.2615    Z=             -1.7489  Tot=              7.2584
 Quadrupole moment (field-independent basis, Debye-Ang):
   XX=            -60.0762   YY=            -71.8176   ZZ=            -81.8478
   XY=             -2.2742   XZ=            -11.6200   YZ=              2.7123

  Exact polarizability: 179.392  -3.579 146.173  -3.583   2.948 117.259
 Approx polarizability: 187.125  -2.300 167.151   0.726   3.050 147.718

                      1                      2                      3
                      A                      A                      A
 Frequencies --     53.0454                68.6465                75.0396
 Red. masses --      4.3780                 3.3756                 3.7721
 Frc consts  --      0.0073                 0.0094                 0.0125
 IR Inten    --      1.7244                 0.3985                 1.1191

                      4                      5                      6
                      A                      A                      A
 Frequencies --     96.8918               115.9251               126.2045
 Red. masses --      3.0387                 2.3425                 2.4235
 Frc consts  --      0.0168                 0.0185                 0.0227
 IR Inten    --      2.3327                 9.3921                 0.9094

                      7                      8                      9
                      A                      A                      A
 Frequencies --    141.3585               149.7395               162.4044
 Red. masses --      2.0740                 2.0614                 1.5743
 Frc consts  --      0.0244                 0.0272                 0.0245
 IR Inten    --      3.0456                 7.0920                 2.1853

                     10                     11                     12
                      A                      A                      A
 Frequencies --    179.4647               200.6948               204.4611
 Red. masses --      1.8978                 1.4508                 1.7896
 Frc consts  --      0.0360                 0.0344                 0.0441
 IR Inten    --      0.5936                 1.2790                 1.7519

                     13                     14                     15
                      A                      A                      A
 Frequencies --    220.9788               239.3114               270.2555
 Red. masses --      1.8039                 2.1885                 2.5457
 Frc consts  --      0.0519                 0.0738                 0.1096
 IR Inten    --      4.6071                 6.2922                 6.7643

                     16                     17                     18
                      A                      A                      A
 Frequencies --    281.6168               293.0326               315.2088
 Red. masses --      3.1760                 4.3148                 3.9361
 Frc consts  --      0.1484                 0.2183                 0.2304
 IR Inten    --      2.2254                17.8501                 1.1902

                     19                     20                     21
                      A                      A                      A
 Frequencies --    345.1224               394.8015               426.9722
 Red. masses --      4.3127                 3.0889                 4.4508
 Frc consts  --      0.3027                 0.2837                 0.4781
 IR Inten    --      9.7779                 9.6114                 1.7724

                     22                     23                     24
                      A                      A                      A
 Frequencies --    445.3449               472.7706               495.1695
 Red. masses --      3.6952                 3.0568                 3.9214
 Frc consts  --      0.4318                 0.4026                 0.5665
 IR Inten    --     27.3962                10.7894                10.2540

                     25                     26                     27
                      A                      A                      A
 Frequencies --    522.5570               587.8408               609.7858
 Red. masses --      4.1274                 3.4052                 3.5643
 Frc consts  --      0.6640                 0.6933                 0.7809
 IR Inten    --     13.4666                30.8942                 7.0420

                     28                     29                     30
                      A                      A                      A
 Frequencies --    749.1066               792.1891               858.4256
 Red. masses --      4.4253                 5.0592                 2.0166
 Frc consts  --      1.4631                 1.8706                 0.8756
 IR Inten    --     60.2715                93.2242                 1.1169

                     31                     32                     33
                      A                      A                      A
 Frequencies --    905.4799               927.5168               954.5377
 Red. masses --      4.3678                 3.6365                 4.1291
 Frc consts  --      2.1099                 1.8432                 2.2166
 IR Inten    --     15.3822                48.0907                85.9636

                     34                     35                     36
                      A                      A                      A
 Frequencies --    974.6250               990.6863              1040.6743
 Red. masses --      4.6514                 3.1088                 3.0871
 Frc consts  --      2.6032                 1.7977                 1.9698
 IR Inten    --      4.6825                 0.9128                20.3610

                     37                     38                     39
                      A                      A                      A
 Frequencies --   1045.4995              1087.2483              1109.8022
 Red. masses --      2.7424                 3.5078                 2.9323
 Frc consts  --      1.7662                 2.4431                 2.1279
 IR Inten    --      4.8845               106.6735                62.6131

                     40                     41                     42
                      A                      A                      A
 Frequencies --   1132.7918              1146.2601              1155.9688
 Red. masses --      2.9579                 3.1179                 4.1047
 Frc consts  --      2.2363                 2.4136                 3.2316
 IR Inten    --     14.5524               151.4089               227.6583

                     43                     44                     45
                      A                      A                      A
 Frequencies --   1170.9363              1176.9475              1178.5666
 Red. masses --      2.5655                 2.5512                 1.2900
 Frc consts  --      2.0725                 2.0821                 1.0557
 IR Inten    --     35.5664                76.1989                 3.1588

                     46                     47                     48
                      A                      A                      A
 Frequencies --   1186.6203              1188.4611              1193.1771
 Red. masses --      1.3132                 1.2786                 1.6716
 Frc consts  --      1.0895                 1.0640                 1.4021
 IR Inten    --      9.1800                 4.1952                17.5217

                     49                     50                     51
                      A                      A                      A
 Frequencies --   1216.6929              1227.5250              1235.0069
 Red. masses --      1.6000                 1.6043                 1.6247
 Frc consts  --      1.3955                 1.4243                 1.4600
 IR Inten    --     23.7169                80.2711                26.1192

                     52                     53                     54
                      A                      A                      A
 Frequencies --   1243.5635              1270.0743              1306.7230
 Red. masses --      1.7413                 1.5011                 1.4636
 Frc consts  --      1.5866                 1.4267                 1.4724
 IR Inten    --     76.9574                11.2581                94.4961

                     55                     56                     57
                      A                      A                      A
 Frequencies --   1328.4445              1336.0655              1354.8538
 Red. masses --      1.2753                 1.1768                 1.2374
 Frc consts  --      1.3260                 1.2377                 1.3382
 IR Inten    --      8.1489                39.5900                 0.6907

                     58                     59                     60
                      A                      A                      A
 Frequencies --   1369.7562              1408.8196              1421.7629
 Red. masses --      1.2393                 1.3381                 1.2758
 Frc consts  --      1.3700                 1.5648                 1.5195
 IR Inten    --      1.8589                 6.0974                 4.7332

                     61                     62                     63
                      A                      A                      A
 Frequencies --   1428.4366              1441.7523              1467.0445
 Red. masses --      1.2639                 1.2632                 1.1592
 Frc consts  --      1.5195                 1.5471                 1.4700
 IR Inten    --     36.0080                16.6233                19.5177

                     64                     65                     66
                      A                      A                      A
 Frequencies --   1495.4557              1498.2229              1499.4392
 Red. masses --      1.1333                 1.1109                 1.1413
 Frc consts  --      1.4933                 1.4692                 1.5118
 IR Inten    --     10.8024                 0.2561                 0.5320

                     67                     68                     69
                      A                      A                      A
 Frequencies --   1507.5274              1511.9167              1514.6601
 Red. masses --      1.1473                 1.0567                 1.0841
 Frc consts  --      1.5362                 1.4232                 1.4653
 IR Inten    --      1.3282                10.2984                 9.4525

                     70                     71                     72
                      A                      A                      A
 Frequencies --   1517.8338              1519.4027              1520.6800
 Red. masses --      1.0469                 1.0511                 1.0502
 Frc consts  --      1.4211                 1.4297                 1.4308
 IR Inten    --     16.2659                 9.1216                17.3549

                     73                     74                     75
                      A                      A                      A
 Frequencies --   1521.0645              1528.1812              1531.2060
 Red. masses --      1.0665                 1.0507                 1.0674
 Frc consts  --      1.4538                 1.4457                 1.4745
 IR Inten    --      3.0412                11.2384                15.8178

                     76                     77                     78
                      A                      A                      A
 Frequencies --   1535.9246              1625.4913              3020.4201
 Red. masses --      1.0525                 6.0889                 1.0365
 Frc consts  --      1.4629                 9.4789                 5.5713
 IR Inten    --     16.8845               361.9586                50.7384

                     79                     80                     81
                      A                      A                      A
 Frequencies --   3026.5166              3038.3825              3040.6324
 Red. masses --      1.0783                 1.0401                 1.0643
 Frc consts  --      5.8194                 5.6573                 5.7976
 IR Inten    --      9.2586                35.9115                28.1084

                     82                     83                     84
                      A                      A                      A
 Frequencies --   3045.5554              3047.2513              3058.0739
 Red. masses --      1.0346                 1.0801                 1.0356
 Frc consts  --      5.6540                 5.9091                 5.7063
 IR Inten    --     34.6555                51.4173                22.3243

                     85                     86                     87
                      A                      A                      A
 Frequencies --   3077.5979              3086.3446              3114.2241
 Red. masses --      1.1052                 1.0861                 1.1047
 Frc consts  --      6.1677                 6.0954                 6.3123
 IR Inten    --     66.9310                17.3397                61.6155

                     88                     89                     90
                      A                      A                      A
 Frequencies --   3115.1031              3120.3229              3129.4582
 Red. masses --      1.1008                 1.0997                 1.1068
 Frc consts  --      6.2937                 6.3085                 6.3862
 IR Inten    --     16.2800                12.6551                37.3290

                     91                     92                     93
                      A                      A                      A
 Frequencies --   3142.2818              3161.2774              3168.7505
 Red. masses --      1.0874                 1.0996                 1.1030
 Frc consts  --      6.3258                 6.4743                 6.5251
 IR Inten    --      7.5546                26.5435                20.2674

                     94                     95                     96
                      A                      A                      A
 Frequencies --   3170.7137              3182.1259              3207.2945
 Red. masses --      1.1031                 1.1025                 1.0932
 Frc consts  --      6.5341                 6.5774                 6.6254
 IR Inten    --     20.0596                15.5796                 0.9996

 - Thermochemistry -
 -------------------
 Temperature   298.150 Kelvin.  Pressure   1.00000 Atm.
 Atom     1 has atomic number  6 and mass  12.00000

 Molecular mass:   219.12325 amu.
 Principal axes and moments of inertia in atomic units:
                           1         2         3
     Eigenvalues --  1994.523564561.928825907.72748
           X            0.99986   0.00512  -0.01589
           Y           -0.00512   0.99999  -0.00044
           Z            0.01589   0.00052   0.99987
 This molecule is an asymmetric top.
 Rotational symmetry number  1.
 Warning -- assumption of classical behavior for rotation
           may cause significant error
 Rotational temperatures (Kelvin)      0.04343     0.01899     0.01466
 Rotational constants (GHZ):           0.90485     0.39561     0.30549
 Zero-point vibrational energy     776352.6 (Joules/Mol)
                                  185.55273 (Kcal/Mol)
 Warning -- explicit consideration of  27 degrees of freedom as
           vibrations may cause significant error
 Vibrational temperatures:     76.32    98.77   107.97   139.41   166.79
          (Kelvin)            181.58   203.38   215.44   233.66   258.21
                              288.76   294.17   317.94   344.32   388.84
                              405.18   421.61   453.52   496.55   568.03
                              614.32   640.75   680.21   712.44   751.84
                              845.77   877.35  1077.80  1139.78  1235.08
                             1302.78  1334.49  1373.37  1402.27  1425.38
                             1497.30  1504.24  1564.31  1596.76  1629.83
                             1649.21  1663.18  1684.72  1693.36  1695.69
                             1707.28  1709.93  1716.72  1750.55  1766.13
                             1776.90  1789.21  1827.35  1880.08  1911.34
                             1922.30  1949.33  1970.77  2026.98  2045.60
                             2055.20  2074.36  2110.75  2151.63  2155.61
                             2157.36  2169.00  2175.31  2179.26  2183.82
                             2186.08  2187.92  2188.47  2198.71  2203.06
                             2209.85  2338.72  4345.71  4354.48  4371.55
                             4374.79  4381.87  4384.31  4399.89  4427.98
                             4440.56  4480.67  4481.94  4489.45  4502.59
                             4521.04  4548.37  4559.13  4561.95  4578.37
                             4614.58

 Zero-point correction=                           0.295697 (Hartree/Particle)
 Thermal correction to Energy=                    0.312659
 Thermal correction to Enthalpy=                  0.313603
 Thermal correction to Gibbs Free Energy=         0.251647
 Sum of electronic and zero-point Energies=           -768.023373
 Sum of electronic and thermal Energies=              -768.006411
 Sum of electronic and thermal Enthalpies=            -768.005467
 Sum of electronic and thermal Free Energies=         -768.067424

                     E (Thermal)             CV                S
                      KCal/Mol        Cal/Mol-Kelvin    Cal/Mol-Kelvin
 Total                  196.197             61.379            130.399
 Electronic               0.000              0.000              0.000
 Translational            0.889              2.981             42.056
 Rotational               0.889              2.981             32.352
 Vibrational            194.419             55.418             55.990
 Vibration     1          0.596              1.976              4.700
 Vibration     2          0.598              1.969              4.192
 Vibration     3          0.599              1.966              4.017
 Vibration     4          0.603              1.951              3.516
 Vibration     5          0.608              1.936              3.167
 Vibration     6          0.611              1.927              3.003
 Vibration     7          0.615              1.912              2.785
 Vibration     8          0.618              1.903              2.676
 Vibration     9          0.623              1.889              2.522
 Vibration    10          0.629              1.868              2.334
 Vibration    11          0.638              1.839              2.127
 Vibration    12          0.640              1.834              2.093
 Vibration    13          0.648              1.809              1.951
 Vibration    14          0.657              1.780              1.808
 Vibration    15          0.674              1.728              1.595
 Vibration    16          0.681              1.708              1.524
 Vibration    17          0.688              1.687              1.456
 Vibration    18          0.703              1.645              1.335
 Vibration    19          0.723              1.585              1.188
 Vibration    20          0.762              1.481              0.982
 Vibration    21          0.789              1.412              0.869
 Vibration    22          0.805              1.371              0.810
 Vibration    23          0.830              1.310              0.730
 Vibration    24          0.851              1.261              0.670
 Vibration    25          0.878              1.200              0.604
 Vibration    26          0.945              1.058              0.471
 Vibration    27          0.969              1.011              0.433

 Optimization completed.
    -- Stationary point found.
 Normal termination of Gaussian 16 at Fri May 24 09:24:05 2019.
