 Gaussian 16, Revision A.03,
 Gaussian 16:  ES64L-G16RevA.03 25-Dec-2016

 -------------------------------------------------------------------
 #p b3lyp 6-31g* opt freq=noraman scrf=(pcm,solvent=tetrahydrofuran)
 -------------------------------------------------------------------

 -----
 title
 -----
 Symbolic Z-matrix:
 Charge =  1 Multiplicity = 1

 SCF Done:  E(RB3LYP) =  -768.334441356     A.U. after   13 cycles
 Optimization completed.
    -- Stationary point found.
 Normal termination of Gaussian 16 at Fri May 24 08:34:51 2019.

 --------------------------------------------------------------------
 #P Geom=AllCheck Guess=TCheck SCRF=Check GenChk RB3LYP/6-31G(d) Freq
 --------------------------------------------------------------------

 Structure from the checkpoint file:  "/scratch/Gau-28271.chk"
 -----
 title
 -----
 Charge =  1 Multiplicity = 1

                         Standard orientation:
 ---------------------------------------------------------------------
 Center     Atomic      Atomic             Coordinates (Angstroms)
 Number     Number       Type             X           Y           Z
 ---------------------------------------------------------------------
      1          6           0        1.021227    0.531332    0.180667
      2          6           0        0.992669   -1.013489    0.339482
      3          6           0        0.105941   -1.334671    1.484636
      4          6           0       -1.497418    0.355907    0.841494
      5          6           0       -0.404039    1.092971    0.015842
      6          1           0        0.380768   -2.109429    2.202294
      7          1           0        0.521747   -1.439985   -0.561918
      8          1           0        1.461321    0.957505    1.091530
      9          1           0       -1.963862    1.044484    1.545517
     10          1           0       -0.664230    0.989651   -1.045926
     11          8           0       -0.938088   -0.695137    1.770228
     12          8           0        2.256759   -1.543189    0.610325
     13          8           0        1.806985    0.821924   -0.943976
     14          8           0       -0.334731    2.455055    0.383292
     15          6           0       -2.547372   -0.378158    0.024684
     16          1           0       -3.083086    0.371983   -0.578026
     17          1           0       -3.275070   -0.864696    0.690033
     18          8           0       -1.875160   -1.319713   -0.780255
     19          6           0        2.866232   -2.237487   -0.488037
     20          1           0        3.849578   -2.550714   -0.134748
     21          1           0        2.280117   -3.121606   -0.767175
     22          1           0        2.975501   -1.572836   -1.350215
     23          6           0        2.727487    1.905878   -0.775232
     24          1           0        3.445425    1.687381    0.025243
     25          1           0        3.260564    1.999205   -1.723075
     26          1           0        2.201045    2.839439   -0.553267
     27          6           0       -1.344623    3.282329   -0.195688
     28          1           0       -1.104246    4.306865    0.092850
     29          1           0       -1.341934    3.199449   -1.290307
     30          1           0       -2.346251    3.035314    0.181796
     31          6           0       -2.755860   -2.123575   -1.565436
     32          1           0       -2.128040   -2.810930   -2.134245
     33          1           0       -3.440173   -2.695136   -0.924835
     34          1           0       -3.340760   -1.503683   -2.256907
 ---------------------------------------------------------------------

 SCF Done:  E(RB3LYP) =  -768.334441356     A.U. after    1 cycles

 The electronic state is 1-A.
 Alpha  occ. eigenvalues --  -19.32594 -19.20062 -19.19773 -19.19181 -19.18942
 Alpha  occ. eigenvalues --  -10.39155 -10.32013 -10.31028 -10.29448 -10.29269
 Alpha  occ. eigenvalues --  -10.28506 -10.25389 -10.25308 -10.25276 -10.24681
 Alpha  occ. eigenvalues --   -1.21366  -1.09239  -1.07976  -1.07668  -1.06219
 Alpha  occ. eigenvalues --   -0.86971  -0.85652  -0.77741  -0.74618  -0.73376
 Alpha  occ. eigenvalues --   -0.70734  -0.69150  -0.67656  -0.66090  -0.62189
 Alpha  occ. eigenvalues --   -0.59556  -0.58634  -0.56441  -0.54165  -0.53591
 Alpha  occ. eigenvalues --   -0.52249  -0.51464  -0.50947  -0.50403  -0.48763
 Alpha  occ. eigenvalues --   -0.48466  -0.47576  -0.46744  -0.45773  -0.45379
 Alpha  occ. eigenvalues --   -0.44016  -0.43298  -0.41939  -0.41326  -0.40433
 Alpha  occ. eigenvalues --   -0.40152  -0.37322  -0.35956  -0.35795  -0.35334
 Alpha  occ. eigenvalues --   -0.31272  -0.30723  -0.29909  -0.28258
 Alpha virt. eigenvalues --   -0.14762  -0.00063   0.04797   0.05453   0.06165
 Alpha virt. eigenvalues --    0.07337   0.08326   0.08897   0.10273   0.10769
 Alpha virt. eigenvalues --    0.11350   0.11648   0.12159   0.13053   0.13248

 Mulliken charges:
               1
     1  C    0.118079
     2  C    0.036928
     3  C    0.295547
     4  C    0.031157
     5  C    0.118205
     6  H    0.277182
     7  H    0.247203
     8  H    0.183301
     9  H    0.242071
    10  H    0.189913
    11  O   -0.308694
    12  O   -0.484438
    13  O   -0.484453
    14  O   -0.487423
    15  C   -0.034198
    16  H    0.188153
    17  H    0.185349
    18  O   -0.490124
    19  C   -0.228492
    20  H    0.187017
    21  H    0.166476
    22  H    0.179453
    23  C   -0.225165
    24  H    0.164482
    25  H    0.179752
    26  H    0.170476
    27  C   -0.229403
    28  H    0.188075
    29  H    0.166453
    30  H    0.157422
    31  C   -0.214046
    32  H    0.183442
    33  H    0.164347
    34  H    0.165953
 Sum of Mulliken charges =   1.00000

 Dipole moment (field-independent basis, Debye):
    X=             -3.4902    Y=             -2.2381    Z=              1.3601  Tot=              4.3636
 Quadrupole moment (field-independent basis, Debye-Ang):
   XX=            -61.9693   YY=            -65.8840   ZZ=            -79.8030
   XY=             -1.7347   XZ=             -0.3798   YZ=             -2.0008

  Exact polarizability: 160.061  -6.144 151.644  -6.545  -4.688 125.302
 Approx polarizability: 173.045  -6.952 162.694  -8.542  -4.341 155.075

                      1                      2                      3
                      A                      A                      A
 Frequencies --     23.8225                38.9525                52.1327
 Red. masses --      3.1914                 3.0422                 3.2257
 Frc consts  --      0.0011                 0.0027                 0.0052
 IR Inten    --      3.0542                 1.2533                 3.1036

                      4                      5                      6
                      A                      A                      A
 Frequencies --     71.8469                83.7399               100.4942
 Red. masses --      3.2040                 3.0552                 2.4845
 Frc consts  --      0.0097                 0.0126                 0.0148
 IR Inten    --      0.9478                 8.8450                 3.6911

                      7                      8                      9
                      A                      A                      A
 Frequencies --    102.7473               128.6463               161.1590
 Red. masses --      2.1423                 3.2726                 1.3000
 Frc consts  --      0.0133                 0.0319                 0.0199
 IR Inten    --      5.9198                 7.1009                 1.2525

                     10                     11                     12
                      A                      A                      A
 Frequencies --    164.8326               171.7024               192.2184
 Red. masses --      2.0627                 1.1721                 1.2411
 Frc consts  --      0.0330                 0.0204                 0.0270
 IR Inten    --      1.3991                 1.3742                 0.8879

                     13                     14                     15
                      A                      A                      A
 Frequencies --    210.6414               248.8809               274.9327
 Red. masses --      1.6857                 3.2972                 4.6854
 Frc consts  --      0.0441                 0.1203                 0.2087
 IR Inten    --     11.7860                 5.0167                 9.2601

                     16                     17                     18
                      A                      A                      A
 Frequencies --    288.0687               293.0880               321.2705
 Red. masses --      2.8501                 3.8103                 4.2812
 Frc consts  --      0.1393                 0.1928                 0.2604
 IR Inten    --      0.6768                11.7530                 5.9841

                     19                     20                     21
                      A                      A                      A
 Frequencies --    339.3071               380.3677               392.5928
 Red. masses --      4.3969                 3.8052                 3.9594
 Frc consts  --      0.2983                 0.3244                 0.3596
 IR Inten    --      3.4929                 3.9081                 2.6434

                     22                     23                     24
                      A                      A                      A
 Frequencies --    421.9342               475.1430               510.0717
 Red. masses --      3.8773                 4.4571                 3.7593
 Frc consts  --      0.4067                 0.5929                 0.5763
 IR Inten    --     14.5224                21.6287                 9.9831

                     25                     26                     27
                      A                      A                      A
 Frequencies --    526.4631               588.7699               661.7987
 Red. masses --      3.4857                 2.9850                 4.7086
 Frc consts  --      0.5692                 0.6097                 1.2151
 IR Inten    --     19.9800                10.2542                12.2412

                     28                     29                     30
                      A                      A                      A
 Frequencies --    718.9126               779.2676               866.8513
 Red. masses --      4.2600                 4.4685                 1.9603
 Frc consts  --      1.2972                 1.5988                 0.8679
 IR Inten    --     65.0945                34.6249                39.2219

                     31                     32                     33
                      A                      A                      A
 Frequencies --    900.3193               958.6077               972.6108
 Red. masses --      3.0812                 3.6143                 2.9293
 Frc consts  --      1.4715                 1.9569                 1.6327
 IR Inten    --      2.7791                 9.2532                 8.1688

                     34                     35                     36
                      A                      A                      A
 Frequencies --    994.4918              1034.5456              1037.4338
 Red. masses --      4.0084                 5.3262                 3.9395
 Frc consts  --      2.3357                 3.3586                 2.4981
 IR Inten    --      7.4646                33.6992               138.2699

                     37                     38                     39
                      A                      A                      A
 Frequencies --   1075.8651              1086.3763              1100.0454
 Red. masses --      2.7356                 2.8486                 2.2345
 Frc consts  --      1.8656                 1.9808                 1.5931
 IR Inten    --    120.6463                22.6135                28.0453

                     40                     41                     42
                      A                      A                      A
 Frequencies --   1113.5620              1140.6215              1147.8700
 Red. masses --      3.2365                 4.2377                 3.9287
 Frc consts  --      2.3646                 3.2484                 3.0499
 IR Inten    --    104.9699               360.1633                92.6400

                     43                     44                     45
                      A                      A                      A
 Frequencies --   1161.4142              1177.8772              1181.6208
 Red. masses --      3.2844                 2.8835                 1.3499
 Frc consts  --      2.6102                 2.3571                 1.1105
 IR Inten    --    108.4733               181.7650                27.0442

                     46                     47                     48
                      A                      A                      A
 Frequencies --   1183.3224              1187.5098              1189.2834
 Red. masses --      1.2584                 1.2991                 1.2805
 Frc consts  --      1.0382                 1.0794                 1.0671
 IR Inten    --      1.8636                17.8673                 0.8985

                     49                     50                     51
                      A                      A                      A
 Frequencies --   1212.0429              1224.6530              1225.0596
 Red. masses --      1.4258                 1.6059                 1.5991
 Frc consts  --      1.2341                 1.4191                 1.4139
 IR Inten    --     46.1893                 8.9929                23.5090

                     52                     53                     54
                      A                      A                      A
 Frequencies --   1231.7524              1249.5388              1269.5626
 Red. masses --      1.6682                 1.6237                 1.1202
 Frc consts  --      1.4912                 1.4937                 1.0638
 IR Inten    --     43.8229                26.4950                18.2894

                     55                     56                     57
                      A                      A                      A
 Frequencies --   1293.4882              1318.5128              1328.8581
 Red. masses --      1.3353                 1.2309                 1.3848
 Frc consts  --      1.3162                 1.2608                 1.4407
 IR Inten    --     24.1877                 4.5722                10.7306

                     58                     59                     60
                      A                      A                      A
 Frequencies --   1352.3110              1373.2936              1410.1515
 Red. masses --      1.2905                 1.3332                 1.3367
 Frc consts  --      1.3905                 1.4814                 1.5660
 IR Inten    --      9.9235                36.8400                17.8989

                     61                     62                     63
                      A                      A                      A
 Frequencies --   1412.1368              1427.5967              1436.7058
 Red. masses --      1.4304                 1.3186                 1.2337
 Frc consts  --      1.6806                 1.5833                 1.5004
 IR Inten    --     35.0944                34.9062                39.5734

                     64                     65                     66
                      A                      A                      A
 Frequencies --   1495.8609              1498.2387              1499.8757
 Red. masses --      1.1539                 1.1167                 1.1464
 Frc consts  --      1.5213                 1.4769                 1.5195
 IR Inten    --      0.2545                 4.8695                 3.7180

                     67                     68                     69
                      A                      A                      A
 Frequencies --   1501.1770              1508.2753              1510.1534
 Red. masses --      1.1582                 1.0507                 1.0499
 Frc consts  --      1.5377                 1.4083                 1.4108
 IR Inten    --      0.4033                 9.4736                 7.0394

                     70                     71                     72
                      A                      A                      A
 Frequencies --   1511.8257              1519.4535              1523.4733
 Red. masses --      1.0524                 1.0735                 1.0583
 Frc consts  --      1.4172                 1.4603                 1.4472
 IR Inten    --      4.9766                 7.5834                14.9058

                     73                     74                     75
                      A                      A                      A
 Frequencies --   1527.0422              1529.5139              1529.8480
 Red. masses --      1.0579                 1.0535                 1.0520
 Frc consts  --      1.4534                 1.4521                 1.4507
 IR Inten    --     14.4676                11.7791                12.5569

                     76                     77                     78
                      A                      A                      A
 Frequencies --   1543.8459              1647.3652              3016.8525
 Red. masses --      1.0907                 6.2762                 1.0624
 Frc consts  --      1.5316                10.0352                 5.6968
 IR Inten    --      5.6373               223.6037                49.7940

                     79                     80                     81
                      A                      A                      A
 Frequencies --   3017.7394              3025.0834              3033.6352
 Red. masses --      1.0732                 1.0358                 1.0350
 Frc consts  --      5.7582                 5.5846                 5.6119
 IR Inten    --      2.9246                57.3435                69.1481

                     82                     83                     84
                      A                      A                      A
 Frequencies --   3042.7604              3048.1850              3048.6596
 Red. masses --      1.0410                 1.0759                 1.0379
 Frc consts  --      5.6784                 5.8900                 5.6835
 IR Inten    --     48.2497                 4.9961                47.0915

                     85                     86                     87
                      A                      A                      A
 Frequencies --   3057.6130              3061.6142              3085.4295
 Red. masses --      1.0850                 1.1038                 1.1059
 Frc consts  --      5.9764                 6.0960                 6.2029
 IR Inten    --     27.9749                49.5460                49.3416

                     88                     89                     90
                      A                      A                      A
 Frequencies --   3094.1595              3118.4426              3126.8052
 Red. masses --      1.1074                 1.1033                 1.1028
 Frc consts  --      6.2464                 6.3213                 6.3523
 IR Inten    --     43.1292                41.0718                27.2097

                     91                     92                     93
                      A                      A                      A
 Frequencies --   3164.8297              3166.2465              3168.5690
 Red. masses --      1.0998                 1.1041                 1.1009
 Frc consts  --      6.4901                 6.5215                 6.5120
 IR Inten    --     24.0095                23.0382                20.3416

                     94                     95                     96
                      A                      A                      A
 Frequencies --   3169.9859              3175.4068              3200.3599
 Red. masses --      1.0885                 1.1046                 1.0945
 Frc consts  --      6.4449                 6.5624                 6.6051
 IR Inten    --      0.4879                19.8433                 2.1529

 - Thermochemistry -
 -------------------
 Temperature   298.150 Kelvin.  Pressure   1.00000 Atm.
 Atom     1 has atomic number  6 and mass  12.00000

 Molecular mass:   219.12325 amu.
 Principal axes and moments of inertia in atomic units:
                           1         2         3
     Eigenvalues --  2894.149243376.491444931.16268
           X            0.99999  -0.00117   0.00492
           Y            0.00111   0.99992   0.01256
           Z           -0.00493  -0.01255   0.99991
 This molecule is an asymmetric top.
 Rotational symmetry number  1.
 Warning -- assumption of classical behavior for rotation
           may cause significant error
 Rotational temperatures (Kelvin)      0.02993     0.02565     0.01756
 Rotational constants (GHZ):           0.62358     0.53450     0.36599
 Zero-point vibrational energy     772596.4 (Joules/Mol)
                                  184.65496 (Kcal/Mol)
 Warning -- explicit consideration of  26 degrees of freedom as
           vibrations may cause significant error
 Vibrational temperatures:     34.28    56.04    75.01   103.37   120.48
          (Kelvin)            144.59   147.83   185.09   231.87   237.16
                              247.04   276.56   303.07   358.08   395.57
                              414.47   421.69   462.24   488.19   547.26
                              564.85   607.07   683.62   733.88   757.46
                              847.11   952.18  1034.35  1121.19  1247.21
                             1295.36  1379.22  1399.37  1430.85  1488.48
                             1492.64  1547.93  1563.05  1582.72  1602.17
                             1641.10  1651.53  1671.02  1694.70  1700.09
                             1702.54  1708.56  1711.11  1743.86  1762.00
                             1762.59  1772.22  1797.81  1826.62  1861.04
                             1897.05  1911.93  1945.67  1975.86  2028.89
                             2031.75  2053.99  2067.10  2152.21  2155.63
                             2157.99  2159.86  2170.07  2172.77  2175.18
                             2186.15  2191.94  2197.07  2200.63  2201.11
                             2221.25  2370.19  4340.58  4341.85  4352.42
                             4364.72  4377.85  4385.66  4386.34  4399.22
                             4404.98  4439.24  4451.81  4486.74  4498.78
                             4553.48  4555.52  4558.86  4560.90  4568.70
                             4604.60

 Zero-point correction=                           0.294266 (Hartree/Particle)
 Thermal correction to Energy=                    0.311782
 Thermal correction to Enthalpy=                  0.312726
 Thermal correction to Gibbs Free Energy=         0.247655
 Sum of electronic and zero-point Energies=           -768.040175
 Sum of electronic and thermal Energies=              -768.022659
 Sum of electronic and thermal Enthalpies=            -768.021715
 Sum of electronic and thermal Free Energies=         -768.086786

                     E (Thermal)             CV                S
                      KCal/Mol        Cal/Mol-Kelvin    Cal/Mol-Kelvin
 Total                  195.646             61.671            136.954
 Electronic               0.000              0.000              0.000
 Translational            0.889              2.981             42.056
 Rotational               0.889              2.981             32.244
 Vibrational            193.869             55.710             62.653
 Vibration     1          0.593              1.985              6.287
 Vibration     2          0.594              1.981              5.312
 Vibration     3          0.596              1.977              4.735
 Vibration     4          0.598              1.967              4.102
 Vibration     5          0.601              1.960              3.801
 Vibration     6          0.604              1.949              3.445
 Vibration     7          0.605              1.947              3.402
 Vibration     8          0.611              1.925              2.966
 Vibration     9          0.622              1.890              2.536
 Vibration    10          0.623              1.886              2.494
 Vibration    11          0.626              1.877              2.417
 Vibration    12          0.634              1.851              2.206
 Vibration    13          0.643              1.825              2.038
 Vibration    14          0.662              1.765              1.738
 Vibration    15          0.677              1.720              1.565
 Vibration    16          0.685              1.696              1.485
 Vibration    17          0.688              1.687              1.456
 Vibration    18          0.707              1.633              1.304
 Vibration    19          0.719              1.597              1.215
 Vibration    20          0.750              1.512              1.038
 Vibration    21          0.760              1.486              0.990
 Vibration    22          0.784              1.423              0.885
 Vibration    23          0.832              1.305              0.723
 Vibration    24          0.865              1.228              0.633
 Vibration    25          0.881              1.191              0.595
 Vibration    26          0.946              1.056              0.469

 Optimization completed.
    -- Stationary point found.
 Normal termination of Gaussian 16 at Fri May 24 08:54:13 2019.
