 Gaussian 16, Revision A.03,
 Gaussian 16:  ES64L-G16RevA.03 25-Dec-2016

 -------------------------------------------------------------------
 #p b3lyp 6-31g* opt freq=noraman scrf=(pcm,solvent=tetrahydrofuran)
 -------------------------------------------------------------------

 -----
 title
 -----
 Symbolic Z-matrix:
 Charge =  1 Multiplicity = 1

 SCF Done:  E(RB3LYP) =  -768.330107721     A.U. after   13 cycles
 Optimization completed.
    -- Stationary point found.
 Normal termination of Gaussian 16 at Fri May 24 08:34:16 2019.

 --------------------------------------------------------------------
 #P Geom=AllCheck Guess=TCheck SCRF=Check GenChk RB3LYP/6-31G(d) Freq
 --------------------------------------------------------------------

 Structure from the checkpoint file:  "/scratch/Gau-98688.chk"
 -----
 title
 -----
 Charge =  1 Multiplicity = 1

                         Standard orientation:
 ---------------------------------------------------------------------
 Center     Atomic      Atomic             Coordinates (Angstroms)
 Number     Number       Type             X           Y           Z
 ---------------------------------------------------------------------
      1          6           0       -0.871825    0.622062   -0.613281
      2          6           0       -1.002771    0.722195    0.949221
      3          6           0       -0.277122   -0.350306    1.697225
      4          6           0        1.097701   -0.942791   -0.195545
      5          6           0       -0.177117   -0.697142   -0.993904
      6          1           0       -0.544659   -0.552826    2.736256
      7          1           0       -0.415103    1.615662    1.234288
      8          1           0       -1.886893    0.621557   -1.030054
      9          1           0        1.450151   -1.961711   -0.351910
     10          1           0        0.088561   -0.673101   -2.057346
     11          8           0        0.703203   -1.007833    1.270820
     12          8           0       -2.276732    0.936582    1.487281
     13          8           0       -0.114892    1.680486   -1.143725
     14          8           0       -1.042057   -1.773312   -0.678373
     15          6           0        2.253974    0.031567   -0.333364
     16          1           0        1.977257    1.037245    0.010810
     17          1           0        2.488971    0.110819   -1.407366
     18          8           0        3.328426   -0.501333    0.403021
     19          6           0       -3.228165   -0.125099    1.314056
     20          1           0       -2.854133   -1.075629    1.714487
     21          1           0       -4.110114    0.179850    1.877640
     22          1           0       -3.500528   -0.260182    0.262384
     23          6           0       -0.813702    2.925099   -1.232762
     24          1           0       -0.125360    3.631229   -1.698819
     25          1           0       -1.713542    2.821123   -1.852008
     26          1           0       -1.101151    3.301841   -0.242354
     27          6           0       -1.900376   -2.185944   -1.747470
     28          1           0       -2.544906   -1.368415   -2.093276
     29          1           0       -1.311080   -2.563863   -2.591479
     30          1           0       -2.521479   -2.988138   -1.346908
     31          6           0        4.491605    0.315816    0.342094
     32          1           0        4.850230    0.422687   -0.691438
     33          1           0        4.300261    1.315396    0.757394
     34          1           0        5.256712   -0.182995    0.939892
 ---------------------------------------------------------------------

 SCF Done:  E(RB3LYP) =  -768.330107721     A.U. after    1 cycles

 The electronic state is 1-A.
 Alpha  occ. eigenvalues --  -19.32461 -19.20891 -19.20202 -19.19925 -19.18230
 Alpha  occ. eigenvalues --  -10.39480 -10.31958 -10.31863 -10.30047 -10.29926
 Alpha  occ. eigenvalues --  -10.27905 -10.26204 -10.25832 -10.25627 -10.24596
 Alpha  occ. eigenvalues --   -1.21316  -1.09710  -1.08576  -1.07662  -1.06666
 Alpha  occ. eigenvalues --   -0.87251  -0.85262  -0.77982  -0.74739  -0.74505
 Alpha  occ. eigenvalues --   -0.71030  -0.69768  -0.68612  -0.66228  -0.61876
 Alpha  occ. eigenvalues --   -0.59094  -0.58806  -0.56830  -0.54517  -0.53836
 Alpha  occ. eigenvalues --   -0.52971  -0.51775  -0.50956  -0.50340  -0.49389
 Alpha  occ. eigenvalues --   -0.48330  -0.47526  -0.47264  -0.46804  -0.45787
 Alpha  occ. eigenvalues --   -0.44659  -0.43194  -0.42163  -0.41640  -0.40474
 Alpha  occ. eigenvalues --   -0.40221  -0.37201  -0.36945  -0.36108  -0.35066
 Alpha  occ. eigenvalues --   -0.33000  -0.30962  -0.29446  -0.28671
 Alpha virt. eigenvalues --   -0.14833   0.00832   0.03602   0.04048   0.05934
 Alpha virt. eigenvalues --    0.06921   0.07892   0.08486   0.09283   0.10202
 Alpha virt. eigenvalues --    0.11278   0.11678   0.11870   0.12654   0.13354

 Mulliken charges:
               1
     1  C    0.131220
     2  C    0.030107
     3  C    0.274815
     4  C    0.057600
     5  C    0.045408
     6  H    0.278058
     7  H    0.265732
     8  H    0.189248
     9  H    0.241187
    10  H    0.207492
    11  O   -0.298637
    12  O   -0.468855
    13  O   -0.488481
    14  O   -0.491568
    15  C   -0.021568
    16  H    0.170485
    17  H    0.179794
    18  O   -0.478663
    19  C   -0.241107
    20  H    0.167586
    21  H    0.198750
    22  H    0.173905
    23  C   -0.229199
    24  H    0.189741
    25  H    0.169812
    26  H    0.166436
    27  C   -0.226542
    28  H    0.164934
    29  H    0.174070
    30  H    0.190755
    31  C   -0.211785
    32  H    0.156340
    33  H    0.153673
    34  H    0.179258
 Sum of Mulliken charges =   1.00000

 Dipole moment (field-independent basis, Debye):
    X=             -1.9260    Y=              0.2541    Z=              0.0261  Tot=              1.9429
 Quadrupole moment (field-independent basis, Debye-Ang):
   XX=            -64.5078   YY=            -77.5936   ZZ=            -72.9748
   XY=              6.6964   XZ=             -0.1374   YZ=              0.9859

  Exact polarizability: 157.470   0.414 135.849  -4.264  -0.542 134.519
 Approx polarizability: 167.749  -4.509 158.701  -5.353  -2.701 157.737

                      1                      2                      3
                      A                      A                      A
 Frequencies --     48.8152                62.2640                81.0997
 Red. masses --      3.9640                 3.0009                 2.8641
 Frc consts  --      0.0056                 0.0069                 0.0111
 IR Inten    --      0.5843                 1.3154                 1.4030

                      4                      5                      6
                      A                      A                      A
 Frequencies --     88.2897                94.6129               100.6828
 Red. masses --      2.7961                 2.3919                 3.1385
 Frc consts  --      0.0128                 0.0126                 0.0187
 IR Inten    --      2.4260                 5.3309                 6.1227

                      7                      8                      9
                      A                      A                      A
 Frequencies --    121.2327               140.2580               151.1452
 Red. masses --      2.4421                 1.4134                 2.1767
 Frc consts  --      0.0211                 0.0164                 0.0293
 IR Inten    --     12.3562                 2.2096                 0.6351

                     10                     11                     12
                      A                      A                      A
 Frequencies --    161.2860               180.9116               190.8377
 Red. masses --      1.5440                 1.2835                 1.9758
 Frc consts  --      0.0237                 0.0248                 0.0424
 IR Inten    --      0.7384                 1.4777                 2.4544

                     13                     14                     15
                      A                      A                      A
 Frequencies --    209.6358               239.2007               272.3394
 Red. masses --      2.4254                 1.3971                 4.0156
 Frc consts  --      0.0628                 0.0471                 0.1755
 IR Inten    --      6.2333                 8.1730                 3.0201

                     16                     17                     18
                      A                      A                      A
 Frequencies --    282.2958               315.0362               323.9341
 Red. masses --      3.8282                 3.4567                 3.9307
 Frc consts  --      0.1797                 0.2021                 0.2430
 IR Inten    --      8.4348                 1.5501                 2.8382

                     19                     20                     21
                      A                      A                      A
 Frequencies --    356.6866               381.8333               395.2699
 Red. masses --      4.8206                 4.0388                 4.3189
 Frc consts  --      0.3613                 0.3469                 0.3976
 IR Inten    --      6.7781                 1.2656                21.2669

                     22                     23                     24
                      A                      A                      A
 Frequencies --    422.4618               493.1917               529.6876
 Red. masses --      4.1568                 4.7226                 4.0397
 Frc consts  --      0.4371                 0.6768                 0.6678
 IR Inten    --     24.1593                 3.6522                24.0202

                     25                     26                     27
                      A                      A                      A
 Frequencies --    579.7609               613.8489               618.9501
 Red. masses --      3.6571                 4.1160                 4.4693
 Frc consts  --      0.7242                 0.9138                 1.0088
 IR Inten    --     18.4325                 9.5146                 2.6931

                     28                     29                     30
                      A                      A                      A
 Frequencies --    680.1397               780.9807               897.3495
 Red. masses --      4.2327                 2.8120                 2.9596
 Frc consts  --      1.1536                 1.0105                 1.4041
 IR Inten    --     77.8925                 9.4006                 7.8198

                     31                     32                     33
                      A                      A                      A
 Frequencies --    925.8600               952.6609               958.0671
 Red. masses --      2.8058                 4.1017                 3.4786
 Frc consts  --      1.4171                 2.1933                 1.8812
 IR Inten    --     26.5131                42.1333                26.0908

                     34                     35                     36
                      A                      A                      A
 Frequencies --    979.7027              1006.2108              1028.9388
 Red. masses --      3.0901                 2.7892                 2.2458
 Frc consts  --      1.7475                 1.6639                 1.4008
 IR Inten    --     26.8187                 8.8746                33.7890

                     37                     38                     39
                      A                      A                      A
 Frequencies --   1047.6514              1074.5298              1114.9342
 Red. masses --      3.1630                 2.4838                 2.7830
 Frc consts  --      2.0454                 1.6897                 2.0383
 IR Inten    --     29.6653                40.9834               130.0670

                     40                     41                     42
                      A                      A                      A
 Frequencies --   1125.2546              1137.0057              1152.1477
 Red. masses --      4.8318                 2.3136                 2.6868
 Frc consts  --      3.6047                 1.7622                 2.1014
 IR Inten    --    156.8077               129.3701               258.1722

                     43                     44                     45
                      A                      A                      A
 Frequencies --   1163.2965              1169.3476              1186.3647
 Red. masses --      4.4200                 3.8999                 1.2677
 Frc consts  --      3.5242                 3.1419                 1.0512
 IR Inten    --    156.7350                71.9216                10.3213

                     46                     47                     48
                      A                      A                      A
 Frequencies --   1187.6722              1188.2968              1192.7916
 Red. masses --      1.3054                 1.2892                 1.3253
 Frc consts  --      1.0849                 1.0726                 1.1109
 IR Inten    --      4.4387                11.0602                 1.9538

                     49                     50                     51
                      A                      A                      A
 Frequencies --   1221.6026              1222.5302              1228.7613
 Red. masses --      1.4890                 1.4877                 1.6453
 Frc consts  --      1.3092                 1.3100                 1.4636
 IR Inten    --     25.5516                33.7929                68.9786

                     52                     53                     54
                      A                      A                      A
 Frequencies --   1236.5825              1250.8227              1276.0985
 Red. masses --      1.6891                 1.6553                 1.2223
 Frc consts  --      1.5217                 1.5259                 1.1727
 IR Inten    --     15.5905                48.6483                10.3857

                     55                     56                     57
                      A                      A                      A
 Frequencies --   1300.1907              1318.8286              1336.5423
 Red. masses --      1.4441                 1.3012                 1.2818
 Frc consts  --      1.4384                 1.3334                 1.3490
 IR Inten    --     25.3299                13.1177                 7.6094

                     58                     59                     60
                      A                      A                      A
 Frequencies --   1350.3819              1366.2119              1382.0625
 Red. masses --      1.2356                 1.2923                 1.3736
 Frc consts  --      1.3276                 1.4211                 1.5459
 IR Inten    --     10.2909                25.6008                20.6789

                     61                     62                     63
                      A                      A                      A
 Frequencies --   1414.8057              1416.4056              1453.6173
 Red. masses --      1.4105                 1.3570                 1.3845
 Frc consts  --      1.6635                 1.6041                 1.7236
 IR Inten    --     21.8099                30.7653                36.0457

                     64                     65                     66
                      A                      A                      A
 Frequencies --   1498.6228              1501.5195              1503.5470
 Red. masses --      1.1234                 1.0933                 1.1547
 Frc consts  --      1.4866                 1.4522                 1.5380
 IR Inten    --      2.3379                 4.6471                 2.3358

                     67                     68                     69
                      A                      A                      A
 Frequencies --   1503.7907              1510.0485              1512.6923
 Red. masses --      1.1217                 1.0498                 1.0590
 Frc consts  --      1.4945                 1.4104                 1.4277
 IR Inten    --      3.3591                 8.6580                 5.0540

                     70                     71                     72
                      A                      A                      A
 Frequencies --   1515.1478              1515.7372              1526.7826
 Red. masses --      1.0688                 1.0540                 1.0676
 Frc consts  --      1.4457                 1.4268                 1.4663
 IR Inten    --      8.8811                12.0660                 1.7468

                     73                     74                     75
                      A                      A                      A
 Frequencies --   1527.2908              1527.9379              1531.5398
 Red. masses --      1.0729                 1.0716                 1.0648
 Frc consts  --      1.4745                 1.4740                 1.4716
 IR Inten    --     11.3197                30.0078                18.2493

                     76                     77                     78
                      A                      A                      A
 Frequencies --   1538.0778              1649.5223              2979.2055
 Red. masses --      1.0891                 6.1026                 1.0782
 Frc consts  --      1.5180                 9.7832                 5.6385
 IR Inten    --      5.6210               187.1403                23.6621

                     79                     80                     81
                      A                      A                      A
 Frequencies --   3009.6366              3019.2883              3031.6318
 Red. masses --      1.0623                 1.0387                 1.0351
 Frc consts  --      5.6694                 5.5791                 5.6052
 IR Inten    --     36.4960                58.6183                47.1392

                     82                     83                     84
                      A                      A                      A
 Frequencies --   3038.4802              3044.6870              3063.1260
 Red. masses --      1.0343                 1.0374                 1.0836
 Frc consts  --      5.6261                 5.6663                 5.9901
 IR Inten    --     47.9047                24.6915                30.1277

                     85                     86                     87
                      A                      A                      A
 Frequencies --   3067.5444              3075.2784              3080.1046
 Red. masses --      1.0974                 1.1032                 1.0860
 Frc consts  --      6.0843                 6.1471                 6.0706
 IR Inten    --     81.3913                14.7907                 9.8281

                     88                     89                     90
                      A                      A                      A
 Frequencies --   3093.1752              3102.0977              3115.3943
 Red. masses --      1.1069                 1.1075                 1.1029
 Frc consts  --      6.2395                 6.2789                 6.3067
 IR Inten    --     50.9504                48.1321                47.8518

                     91                     92                     93
                      A                      A                      A
 Frequencies --   3159.3460              3169.2878              3172.3791
 Red. masses --      1.0994                 1.0882                 1.1008
 Frc consts  --      6.4653                 6.4397                 6.5274
 IR Inten    --     28.4962                 0.5051                26.9074

                     94                     95                     96
                      A                      A                      A
 Frequencies --   3172.6812              3181.2023              3193.4459
 Red. masses --      1.1015                 1.1019                 1.0936
 Frc consts  --      6.5327                 6.5699                 6.5706
 IR Inten    --     13.8444                18.4991                 1.2494

 - Thermochemistry -
 -------------------
 Temperature   298.150 Kelvin.  Pressure   1.00000 Atm.
 Atom     1 has atomic number  6 and mass  12.00000

 Molecular mass:   219.12325 amu.
 Principal axes and moments of inertia in atomic units:
                           1         2         3
     Eigenvalues --  2351.425624364.535704737.98564
           X            0.99972   0.02326   0.00471
           Y           -0.02335   0.99954   0.01927
           Z           -0.00426  -0.01937   0.99980
 This molecule is an asymmetric top.
 Rotational symmetry number  1.
 Warning -- assumption of classical behavior for rotation
           may cause significant error
 Rotational temperatures (Kelvin)      0.03683     0.01984     0.01828
 Rotational constants (GHZ):           0.76751     0.41350     0.38091
 Zero-point vibrational energy     773448.3 (Joules/Mol)
                                  184.85859 (Kcal/Mol)
 Warning -- explicit consideration of  27 degrees of freedom as
           vibrations may cause significant error
 Vibrational temperatures:     70.23    89.58   116.68   127.03   136.13
          (Kelvin)            144.86   174.43   201.80   217.46   232.05
                              260.29   274.57   301.62   344.16   391.84
                              406.16   453.27   466.07   513.19   549.37
                              568.71   607.83   709.59   762.10   834.15
                              883.19   890.53   978.57  1123.66  1291.09
                             1332.11  1370.67  1378.44  1409.57  1447.71
                             1480.41  1507.34  1546.01  1604.14  1618.99
                             1635.90  1657.68  1673.72  1682.43  1706.91
                             1708.80  1709.69  1716.16  1757.61  1758.95
                             1767.91  1779.17  1799.65  1836.02  1870.68
                             1897.50  1922.99  1942.90  1965.67  1988.48
                             2035.59  2037.89  2091.43  2156.18  2160.35
                             2163.27  2163.62  2172.62  2176.43  2179.96
                             2180.81  2196.70  2197.43  2198.36  2203.54
                             2212.95  2373.29  4286.41  4330.20  4344.08
                             4361.84  4371.70  4380.63  4407.16  4413.51
                             4424.64  4431.58  4450.39  4463.23  4482.36
                             4545.59  4559.90  4564.35  4564.78  4577.04
                             4594.66

 Zero-point correction=                           0.294591 (Hartree/Particle)
 Thermal correction to Energy=                    0.311777
 Thermal correction to Enthalpy=                  0.312721
 Thermal correction to Gibbs Free Energy=         0.249793
 Sum of electronic and zero-point Energies=           -768.035517
 Sum of electronic and thermal Energies=              -768.018330
 Sum of electronic and thermal Enthalpies=            -768.017386
 Sum of electronic and thermal Free Energies=         -768.080315

                     E (Thermal)             CV                S
                      KCal/Mol        Cal/Mol-Kelvin    Cal/Mol-Kelvin
 Total                  195.643             61.447            132.445
 Electronic               0.000              0.000              0.000
 Translational            0.889              2.981             42.056
 Rotational               0.889              2.981             32.253
 Vibrational            193.866             55.486             58.136
 Vibration     1          0.595              1.978              4.865
 Vibration     2          0.597              1.972              4.384
 Vibration     3          0.600              1.962              3.864
 Vibration     4          0.601              1.957              3.698
 Vibration     5          0.603              1.953              3.562
 Vibration     6          0.604              1.949              3.441
 Vibration     7          0.609              1.931              3.081
 Vibration     8          0.615              1.913              2.800
 Vibration     9          0.619              1.901              2.658
 Vibration    10          0.622              1.890              2.535
 Vibration    11          0.630              1.866              2.319
 Vibration    12          0.634              1.853              2.220
 Vibration    13          0.642              1.826              2.047
 Vibration    14          0.657              1.781              1.809
 Vibration    15          0.675              1.724              1.581
 Vibration    16          0.681              1.706              1.520
 Vibration    17          0.702              1.645              1.336
 Vibration    18          0.708              1.628              1.290
 Vibration    19          0.732              1.562              1.137
 Vibration    20          0.751              1.509              1.032
 Vibration    21          0.762              1.480              0.980
 Vibration    22          0.785              1.421              0.884
 Vibration    23          0.849              1.265              0.675
 Vibration    24          0.885              1.184              0.588
 Vibration    25          0.936              1.075              0.486
 Vibration    26          0.973              1.003              0.426
 Vibration    27          0.979              0.992              0.418

 Optimization completed.
    -- Stationary point found.
 Normal termination of Gaussian 16 at Fri May 24 08:54:24 2019.
