 Gaussian 16, Revision A.03,
 Gaussian 16:  ES64L-G16RevA.03 25-Dec-2016

 -------------------------------------------------------------------
 #p b3lyp 6-31g* opt freq=noraman scrf=(pcm,solvent=tetrahydrofuran)
 -------------------------------------------------------------------

 -----
 title
 -----
 Symbolic Z-matrix:
 Charge =  1 Multiplicity = 1

 SCF Done:  E(RB3LYP) =  -768.320473713     A.U. after   14 cycles
 Optimization completed.
    -- Stationary point found.
 Normal termination of Gaussian 16 at Fri May 24 08:33:12 2019.

 --------------------------------------------------------------------
 #P Geom=AllCheck Guess=TCheck SCRF=Check GenChk RB3LYP/6-31G(d) Freq
 --------------------------------------------------------------------

 Structure from the checkpoint file:  "/scratch/Gau-63568.chk"
 -----
 title
 -----
 Charge =  1 Multiplicity = 1

                         Standard orientation:
 ---------------------------------------------------------------------
 Center     Atomic      Atomic             Coordinates (Angstroms)
 Number     Number       Type             X           Y           Z
 ---------------------------------------------------------------------
      1          6           0       -1.207590    0.527986    0.020393
      2          6           0       -1.141371   -0.971769   -0.455543
      3          6           0       -0.072369   -1.148034   -1.463901
      4          6           0        1.386439    0.335176   -0.256925
      5          6           0        0.187945    1.237430    0.050163
      6          1           0       -0.238824   -1.766885   -2.346701
      7          1           0       -0.839011   -1.603608    0.401355
      8          1           0       -1.782944    1.026851   -0.762480
      9          1           0        2.169327    0.942115   -0.707138
     10          1           0        0.351381    1.657532    1.053158
     11          8           0        1.054671   -0.595268   -1.396551
     12          8           0       -2.335058   -1.410495   -1.031106
     13          8           0       -1.985711    0.676128    1.180737
     14          8           0        0.229152    2.264857   -0.923297
     15          6           0        1.942551   -0.505266    0.901738
     16          1           0        1.161660   -1.121225    1.357169
     17          1           0        2.290273    0.207863    1.665219
     18          8           0        2.955011   -1.387561    0.497336
     19          6           0       -3.268833   -2.024693   -0.129661
     20          1           0       -3.627986   -1.305196    0.611686
     21          1           0       -4.100622   -2.360780   -0.749565
     22          1           0       -2.816132   -2.889687    0.370915
     23          6           0       -1.487580    0.139824    2.405233
     24          1           0       -1.390849   -0.953704    2.370635
     25          1           0       -0.524961    0.579800    2.691708
     26          1           0       -2.228979    0.395365    3.163319
     27          6           0       -0.490905    3.443101   -0.556610
     28          1           0       -0.345066    4.154482   -1.370776
     29          1           0       -1.564548    3.250146   -0.436342
     30          1           0       -0.096857    3.865739    0.377167
     31          6           0        4.235890   -0.785822    0.306189
     32          1           0        4.931887   -1.604214    0.114549
     33          1           0        4.250361   -0.102419   -0.552949
     34          1           0        4.552295   -0.241078    1.205641
 ---------------------------------------------------------------------

 SCF Done:  E(RB3LYP) =  -768.320473713     A.U. after    1 cycles

 The electronic state is 1-A.
 Alpha  occ. eigenvalues --  -19.32839 -19.20645 -19.20440 -19.19355 -19.19056
 Alpha  occ. eigenvalues --  -10.39573 -10.32340 -10.32132 -10.30334 -10.30278
 Alpha  occ. eigenvalues --  -10.29006 -10.26324 -10.25745 -10.25247 -10.25119
 Alpha  occ. eigenvalues --   -1.21724  -1.09906  -1.08360  -1.07342  -1.07251
 Alpha  occ. eigenvalues --   -0.87236  -0.85871  -0.78004  -0.75518  -0.74916
 Alpha  occ. eigenvalues --   -0.71288  -0.69929  -0.68800  -0.65864  -0.62205
 Alpha  occ. eigenvalues --   -0.60084  -0.59181  -0.56745  -0.54365  -0.53732
 Alpha  occ. eigenvalues --   -0.53299  -0.52833  -0.51702  -0.50882  -0.48947
 Alpha  occ. eigenvalues --   -0.48535  -0.48285  -0.47099  -0.46291  -0.45981
 Alpha  occ. eigenvalues --   -0.44497  -0.43223  -0.42565  -0.42011  -0.41218
 Alpha  occ. eigenvalues --   -0.40518  -0.37099  -0.36596  -0.35653  -0.35348
 Alpha  occ. eigenvalues --   -0.33349  -0.31370  -0.29918  -0.28070
 Alpha virt. eigenvalues --   -0.15300   0.00775   0.03371   0.03781   0.04740
 Alpha virt. eigenvalues --    0.06187   0.07563   0.08343   0.08699   0.09432
 Alpha virt. eigenvalues --    0.10252   0.10840   0.11743   0.12586   0.13130

 Mulliken charges:
               1
     1  C    0.121314
     2  C    0.019949
     3  C    0.295027
     4  C    0.033909
     5  C    0.085379
     6  H    0.283118
     7  H    0.228301
     8  H    0.218098
     9  H    0.242045
    10  H    0.193040
    11  O   -0.300364
    12  O   -0.480549
    13  O   -0.467443
    14  O   -0.491680
    15  C   -0.057267
    16  H    0.181043
    17  H    0.190750
    18  O   -0.462273
    19  C   -0.233544
    20  H    0.182272
    21  H    0.193058
    22  H    0.169529
    23  C   -0.250428
    24  H    0.164209
    25  H    0.168253
    26  H    0.202830
    27  C   -0.228693
    28  H    0.187829
    29  H    0.166150
    30  H    0.164511
    31  C   -0.228242
    32  H    0.186568
    33  H    0.160301
    34  H    0.162999
 Sum of Mulliken charges =   1.00000

 Dipole moment (field-independent basis, Debye):
    X=              0.6837    Y=             -1.2212    Z=              0.9842  Tot=              1.7110
 Quadrupole moment (field-independent basis, Debye-Ang):
   XX=            -68.6514   YY=            -73.6548   ZZ=            -76.8634
   XY=              7.4936   XZ=             -0.6621   YZ=              3.5392

  Exact polarizability: 158.822   4.081 139.092  -5.463   6.617 135.613
 Approx polarizability: 175.108   2.167 157.497  -9.555   8.858 164.062

                      1                      2                      3
                      A                      A                      A
 Frequencies --     41.4493                60.3747                72.0590
 Red. masses --      3.9020                 3.5714                 2.7577
 Frc consts  --      0.0039                 0.0077                 0.0084
 IR Inten    --      1.2271                 1.1754                 0.4283

                      4                      5                      6
                      A                      A                      A
 Frequencies --     91.8142                95.7431               110.1792
 Red. masses --      2.6191                 2.3160                 2.9408
 Frc consts  --      0.0130                 0.0125                 0.0210
 IR Inten    --      1.3843                 9.7126                 4.9368

                      7                      8                      9
                      A                      A                      A
 Frequencies --    130.9551               151.9028               161.8682
 Red. masses --      2.0034                 2.0964                 1.3954
 Frc consts  --      0.0202                 0.0285                 0.0215
 IR Inten    --      7.0820                 2.2363                 0.0817

                     10                     11                     12
                      A                      A                      A
 Frequencies --    174.0940               175.6074               187.5382
 Red. masses --      1.6994                 1.2922                 1.6039
 Frc consts  --      0.0303                 0.0235                 0.0332
 IR Inten    --      2.3577                 0.8067                 4.6356

                     13                     14                     15
                      A                      A                      A
 Frequencies --    228.5004               240.0198               254.2668
 Red. masses --      2.2946                 2.6916                 3.7154
 Frc consts  --      0.0706                 0.0914                 0.1415
 IR Inten    --      7.2503                 2.2874                12.7801

                     16                     17                     18
                      A                      A                      A
 Frequencies --    283.3746               304.7787               331.3090
 Red. masses --      3.2756                 4.7299                 4.0055
 Frc consts  --      0.1550                 0.2589                 0.2590
 IR Inten    --      1.7755                 3.2249                 1.5881

                     19                     20                     21
                      A                      A                      A
 Frequencies --    381.4648               392.3401               412.7911
 Red. masses --      4.3352                 4.3506                 3.3261
 Frc consts  --      0.3717                 0.3946                 0.3339
 IR Inten    --      0.2305                22.8960                 8.6781

                     22                     23                     24
                      A                      A                      A
 Frequencies --    446.9001               471.8370               514.9505
 Red. masses --      3.4765                 4.3741                 3.1257
 Frc consts  --      0.4091                 0.5737                 0.4884
 IR Inten    --     12.0239                13.5158                14.8278

                     25                     26                     27
                      A                      A                      A
 Frequencies --    556.1401               581.2292               638.4311
 Red. masses --      3.4548                 4.0716                 4.2189
 Frc consts  --      0.6296                 0.8104                 1.0132
 IR Inten    --      6.3964                24.8935                30.9493

                     28                     29                     30
                      A                      A                      A
 Frequencies --    704.7692               777.2023               820.5232
 Red. masses --      4.0977                 3.1971                 2.8386
 Frc consts  --      1.1992                 1.1378                 1.1260
 IR Inten    --     33.9481                92.0886                 1.8668

                     31                     32                     33
                      A                      A                      A
 Frequencies --    928.0238               940.4476               955.2748
 Red. masses --      3.2857                 3.9745                 2.9567
 Frc consts  --      1.6672                 2.0711                 1.5897
 IR Inten    --     50.1844                12.4867                20.9311

                     34                     35                     36
                      A                      A                      A
 Frequencies --    962.0006              1011.3480              1023.2178
 Red. masses --      4.5209                 5.1563                 3.2916
 Frc consts  --      2.4651                 3.1073                 2.0305
 IR Inten    --     51.6033                20.9436                35.6511

                     37                     38                     39
                      A                      A                      A
 Frequencies --   1055.2794              1076.1124              1097.9709
 Red. masses --      2.5413                 3.3465                 2.7635
 Frc consts  --      1.6674                 2.2833                 1.9629
 IR Inten    --     29.2500               136.6496                80.5021

                     40                     41                     42
                      A                      A                      A
 Frequencies --   1110.8524              1130.5032              1156.1223
 Red. masses --      2.3849                 5.6130                 4.4380
 Frc consts  --      1.7340                 4.2266                 3.4950
 IR Inten    --     90.5719               200.3074               105.0250

                     43                     44                     45
                      A                      A                      A
 Frequencies --   1158.7146              1170.3174              1182.1168
 Red. masses --      3.8109                 2.4941                 1.2703
 Frc consts  --      3.0146                 2.0126                 1.0459
 IR Inten    --    172.0480               105.2383                 5.7575

                     46                     47                     48
                      A                      A                      A
 Frequencies --   1184.8210              1188.8884              1189.6464
 Red. masses --      1.2717                 1.2986                 1.3124
 Frc consts  --      1.0518                 1.0815                 1.0944
 IR Inten    --      5.7937                 0.0722                 4.9014

                     49                     50                     51
                      A                      A                      A
 Frequencies --   1222.3138              1226.4134              1229.8095
 Red. masses --      1.5582                 1.6245                 1.7464
 Frc consts  --      1.3716                 1.4396                 1.5562
 IR Inten    --    119.4492                28.9753                55.5890

                     52                     53                     54
                      A                      A                      A
 Frequencies --   1230.6183              1241.2779              1287.3105
 Red. masses --      1.5678                 1.4099                 1.2830
 Frc consts  --      1.3989                 1.2799                 1.2527
 IR Inten    --     42.6784                28.7885                12.1364

                     55                     56                     57
                      A                      A                      A
 Frequencies --   1318.5927              1330.4838              1331.8123
 Red. masses --      1.2359                 1.3050                 1.3001
 Frc consts  --      1.2661                 1.3611                 1.3587
 IR Inten    --      6.7711                38.2038                 1.6897

                     58                     59                     60
                      A                      A                      A
 Frequencies --   1350.5471              1372.9751              1406.0466
 Red. masses --      1.2195                 1.2885                 1.3240
 Frc consts  --      1.3105                 1.4311                 1.5422
 IR Inten    --      7.4103                79.5767                11.9423

                     61                     62                     63
                      A                      A                      A
 Frequencies --   1411.1580              1425.9984              1452.2658
 Red. masses --      1.4101                 1.2068                 1.2122
 Frc consts  --      1.6545                 1.4459                 1.5063
 IR Inten    --     37.9113                24.9061                18.8550

                     64                     65                     66
                      A                      A                      A
 Frequencies --   1496.4451              1497.6156              1497.8699
 Red. masses --      1.1310                 1.1276                 1.1132
 Frc consts  --      1.4922                 1.4900                 1.4716
 IR Inten    --      1.6617                 2.0199                 3.1205

                     67                     68                     69
                      A                      A                      A
 Frequencies --   1505.0256              1509.8274              1512.9698
 Red. masses --      1.1068                 1.0731                 1.0645
 Frc consts  --      1.4770                 1.4413                 1.4357
 IR Inten    --      2.6098                 9.4045                 6.9467

                     70                     71                     72
                      A                      A                      A
 Frequencies --   1515.8067              1520.4141              1526.9309
 Red. masses --      1.0659                 1.0651                 1.0628
 Frc consts  --      1.4429                 1.4507                 1.4599
 IR Inten    --     11.9793                 8.2829                 4.5278

                     73                     74                     75
                      A                      A                      A
 Frequencies --   1527.4625              1528.9362              1535.9941
 Red. masses --      1.0558                 1.0640                 1.0623
 Frc consts  --      1.4514                 1.4655                 1.4766
 IR Inten    --     28.4451                12.7193                 7.9230

                     76                     77                     78
                      A                      A                      A
 Frequencies --   1537.0645              1648.5318              2970.4385
 Red. masses --      1.0728                 5.8508                 1.0764
 Frc consts  --      1.4933                 9.3683                 5.5958
 IR Inten    --     15.1287               212.9794                38.3876

                     79                     80                     81
                      A                      A                      A
 Frequencies --   3021.1550              3029.2098              3030.7429
 Red. masses --      1.0681                 1.0383                 1.0363
 Frc consts  --      5.7440                 5.6137                 5.6082
 IR Inten    --     16.7926                42.9722                13.5745

                     82                     83                     84
                      A                      A                      A
 Frequencies --   3030.9906              3038.4922              3050.3399
 Red. masses --      1.0385                 1.0775                 1.0363
 Frc consts  --      5.6212                 5.8612                 5.6812
 IR Inten    --     69.7898                40.4198                49.7136

                     85                     86                     87
                      A                      A                      A
 Frequencies --   3088.0668              3090.6961              3093.4187
 Red. masses --      1.1068                 1.1067                 1.1033
 Frc consts  --      6.2187                 6.2287                 6.2206
 IR Inten    --     56.9430                58.1867                56.5811

                     88                     89                     90
                      A                      A                      A
 Frequencies --   3120.9363              3128.2811              3130.9131
 Red. masses --      1.0940                 1.0858                 1.1018
 Frc consts  --      6.2785                 6.2607                 6.3637
 IR Inten    --     22.2068                 5.3629                25.9837

                     91                     92                     93
                      A                      A                      A
 Frequencies --   3164.4691              3168.8987              3171.1687
 Red. masses --      1.0999                 1.1005                 1.0991
 Frc consts  --      6.4896                 6.5113                 6.5120
 IR Inten    --     23.9811                22.5341                17.0620

                     94                     95                     96
                      A                      A                      A
 Frequencies --   3179.6088              3182.4604              3206.1153
 Red. masses --      1.1044                 1.0879                 1.0950
 Frc consts  --      6.5787                 6.4915                 6.6318
 IR Inten    --     16.8446                 1.4916                 4.5579

 - Thermochemistry -
 -------------------
 Temperature   298.150 Kelvin.  Pressure   1.00000 Atm.
 Atom     1 has atomic number  6 and mass  12.00000

 Molecular mass:   219.12325 amu.
 Principal axes and moments of inertia in atomic units:
                           1         2         3
     Eigenvalues --  2593.650844115.730154983.05295
           X            0.99982   0.01878  -0.00209
           Y           -0.01881   0.99975  -0.01198
           Z            0.00187   0.01201   0.99993
 This molecule is an asymmetric top.
 Rotational symmetry number  1.
 Warning -- assumption of classical behavior for rotation
           may cause significant error
 Rotational temperatures (Kelvin)      0.03339     0.02104     0.01738
 Rotational constants (GHZ):           0.69583     0.43850     0.36218
 Zero-point vibrational energy     774049.6 (Joules/Mol)
                                  185.00230 (Kcal/Mol)
 Warning -- explicit consideration of  26 degrees of freedom as
           vibrations may cause significant error
 Vibrational temperatures:     59.64    86.87   103.68   132.10   137.75
          (Kelvin)            158.52   188.42   218.55   232.89   250.48
                              252.66   269.83   328.76   345.33   365.83
                              407.71   438.51   476.68   548.84   564.49
                              593.91   642.99   678.87   740.90   800.16
                              836.26   918.56  1014.01  1118.22  1180.55
                             1335.22  1353.09  1374.43  1384.10  1455.10
                             1472.18  1518.31  1548.29  1579.74  1598.27
                             1626.54  1663.40  1667.13  1683.83  1700.80
                             1704.69  1710.55  1711.64  1758.64  1764.54
                             1769.42  1770.59  1785.92  1852.15  1897.16
                             1914.27  1916.18  1943.14  1975.40  2022.99
                             2030.34  2051.69  2089.49  2153.05  2154.73
                             2155.10  2165.40  2172.30  2176.83  2180.91
                             2187.54  2196.91  2197.68  2199.80  2209.95
                             2211.49  2371.87  4273.80  4346.77  4358.36
                             4360.56  4360.92  4371.71  4388.76  4443.04
                             4446.82  4450.74  4490.33  4500.90  4504.69
                             4552.97  4559.34  4562.60  4574.75  4578.85
                             4612.88

 Zero-point correction=                           0.294820 (Hartree/Particle)
 Thermal correction to Energy=                    0.311940
 Thermal correction to Enthalpy=                  0.312884
 Thermal correction to Gibbs Free Energy=         0.250036
 Sum of electronic and zero-point Energies=           -768.025654
 Sum of electronic and thermal Energies=              -768.008534
 Sum of electronic and thermal Enthalpies=            -768.007590
 Sum of electronic and thermal Free Energies=         -768.070438

                     E (Thermal)             CV                S
                      KCal/Mol        Cal/Mol-Kelvin    Cal/Mol-Kelvin
 Total                  195.745             61.519            132.275
 Electronic               0.000              0.000              0.000
 Translational            0.889              2.981             42.056
 Rotational               0.889              2.981             32.342
 Vibrational            193.968             55.558             57.877
 Vibration     1          0.594              1.981              5.189
 Vibration     2          0.597              1.973              4.445
 Vibration     3          0.598              1.967              4.096
 Vibration     4          0.602              1.955              3.621
 Vibration     5          0.603              1.952              3.539
 Vibration     6          0.606              1.941              3.266
 Vibration     7          0.612              1.922              2.932
 Vibration     8          0.619              1.901              2.648
 Vibration     9          0.622              1.889              2.528
 Vibration    10          0.627              1.874              2.391
 Vibration    11          0.628              1.872              2.375
 Vibration    12          0.632              1.857              2.252
 Vibration    13          0.651              1.798              1.891
 Vibration    14          0.657              1.779              1.803
 Vibration    15          0.665              1.756              1.701
 Vibration    16          0.682              1.704              1.513
 Vibration    17          0.696              1.665              1.391
 Vibration    18          0.714              1.613              1.254
 Vibration    19          0.751              1.510              1.033
 Vibration    20          0.760              1.487              0.991
 Vibration    21          0.777              1.442              0.917
 Vibration    22          0.806              1.368              0.805
 Vibration    23          0.829              1.313              0.732
 Vibration    24          0.870              1.217              0.622
 Vibration    25          0.912              1.126              0.532
 Vibration    26          0.938              1.072              0.483

 Optimization completed.
    -- Stationary point found.
 Normal termination of Gaussian 16 at Fri May 24 08:52:30 2019.
