 Gaussian 16, Revision A.03,
 Gaussian 16:  ES64L-G16RevA.03 25-Dec-2016

 -------------------------------------------------------------------
 #p b3lyp 6-31g* opt freq=noraman scrf=(pcm,solvent=tetrahydrofuran)
 -------------------------------------------------------------------

 -----
 title
 -----
 Symbolic Z-matrix:
 Charge =  1 Multiplicity = 1

 SCF Done:  E(RB3LYP) =  -768.322688499     A.U. after   14 cycles
 Optimization completed.
    -- Stationary point found.
 Normal termination of Gaussian 16 at Fri May 24 08:32:52 2019.

 --------------------------------------------------------------------
 #P Geom=AllCheck Guess=TCheck SCRF=Check GenChk RB3LYP/6-31G(d) Freq
 --------------------------------------------------------------------

 Structure from the checkpoint file:  "/scratch/Gau-63569.chk"
 -----
 title
 -----
 Charge =  1 Multiplicity = 1

                         Standard orientation:
 ---------------------------------------------------------------------
 Center     Atomic      Atomic             Coordinates (Angstroms)
 Number     Number       Type             X           Y           Z
 ---------------------------------------------------------------------
      1          6           0        0.930820    0.316811   -0.626659
      2          6           0        1.474311   -0.518399    0.598324
      3          6           0        1.010436    0.028043    1.891438
      4          6           0       -1.127198    0.589173    0.963361
      5          6           0       -0.386242    1.080744   -0.279918
      6          1           0        1.680840    0.060792    2.751143
      7          1           0        1.012035   -1.524133    0.549218
      8          1           0        1.695729    1.080867   -0.780172
      9          1           0       -1.783435    1.385318    1.309549
     10          1           0       -1.087600    1.005428   -1.120709
     11          8           0       -0.148879    0.478115    2.097233
     12          8           0        2.867052   -0.593489    0.648235
     13          8           0        0.928330   -0.423682   -1.817968
     14          8           0       -0.071556    2.432771    0.012391
     15          6           0       -1.912137   -0.724170    0.885912
     16          1           0       -2.399455   -0.894854    1.856356
     17          1           0       -1.263144   -1.589372    0.684726
     18          8           0       -2.849155   -0.533709   -0.145530
     19          6           0        3.441504   -1.680156   -0.094189
     20          1           0        3.234055   -1.577473   -1.163344
     21          1           0        4.516175   -1.626029    0.081953
     22          1           0        3.059095   -2.641636    0.270985
     23          6           0       -0.012155   -1.489069   -1.957669
     24          1           0        0.210215   -2.325188   -1.279196
     25          1           0        0.095769   -1.845582   -2.983016
     26          1           0       -1.043270   -1.154273   -1.798671
     27          6           0        0.099453    3.259140   -1.139989
     28          1           0        0.940746    2.928496   -1.762662
     29          1           0       -0.813983    3.272328   -1.748565
     30          1           0        0.306197    4.263473   -0.767130
     31          6           0       -3.833506   -1.566763   -0.202130
     32          1           0       -4.501900   -1.311746   -1.025831
     33          1           0       -3.371390   -2.544107   -0.394535
     34          1           0       -4.404742   -1.614477    0.734112
 ---------------------------------------------------------------------

 SCF Done:  E(RB3LYP) =  -768.322688499     A.U. after    1 cycles

 The electronic state is 1-A.
 Alpha  occ. eigenvalues --  -19.32984 -19.20606 -19.20108 -19.19604 -19.19254
 Alpha  occ. eigenvalues --  -10.39698 -10.32272 -10.32163 -10.30095 -10.29673
 Alpha  occ. eigenvalues --  -10.28903 -10.25858 -10.25717 -10.25258 -10.25181
 Alpha  occ. eigenvalues --   -1.21840  -1.09761  -1.08228  -1.07718  -1.07124
 Alpha  occ. eigenvalues --   -0.87292  -0.85712  -0.78085  -0.75269  -0.74769
 Alpha  occ. eigenvalues --   -0.71103  -0.68931  -0.68373  -0.66947  -0.61948
 Alpha  occ. eigenvalues --   -0.59998  -0.59184  -0.56624  -0.54523  -0.53754
 Alpha  occ. eigenvalues --   -0.52916  -0.52713  -0.51431  -0.50681  -0.49028
 Alpha  occ. eigenvalues --   -0.48426  -0.48209  -0.47084  -0.46541  -0.45964
 Alpha  occ. eigenvalues --   -0.44426  -0.43095  -0.42715  -0.41657  -0.40672
 Alpha  occ. eigenvalues --   -0.39874  -0.37167  -0.36668  -0.36222  -0.35206
 Alpha  occ. eigenvalues --   -0.33349  -0.31098  -0.29895  -0.28010
 Alpha virt. eigenvalues --   -0.15404   0.00365   0.03604   0.03870   0.05165
 Alpha virt. eigenvalues --    0.07325   0.08107   0.08867   0.09254   0.10130
 Alpha virt. eigenvalues --    0.10286   0.11326   0.12131   0.13185   0.13520

 Mulliken charges:
               1
     1  C    0.130458
     2  C    0.023449
     3  C    0.292629
     4  C    0.053056
     5  C    0.061227
     6  H    0.283172
     7  H    0.228477
     8  H    0.216921
     9  H    0.244573
    10  H    0.209774
    11  O   -0.313952
    12  O   -0.481793
    13  O   -0.466658
    14  O   -0.492145
    15  C   -0.034782
    16  H    0.189504
    17  H    0.155851
    18  O   -0.474604
    19  C   -0.232970
    20  H    0.182332
    21  H    0.192586
    22  H    0.167924
    23  C   -0.260617
    24  H    0.159802
    25  H    0.197529
    26  H    0.180623
    27  C   -0.226595
    28  H    0.163520
    29  H    0.166934
    30  H    0.187021
    31  C   -0.214944
    32  H    0.185826
    33  H    0.160828
    34  H    0.165045
 Sum of Mulliken charges =   1.00000

 Dipole moment (field-independent basis, Debye):
    X=             -0.4000    Y=             -3.1527    Z=              3.0598  Tot=              4.4116
 Quadrupole moment (field-independent basis, Debye-Ang):
   XX=            -68.0848   YY=            -71.4537   ZZ=            -75.3480
   XY=              0.6734   XZ=              2.2648   YZ=             -2.9109

  Exact polarizability: 155.025  -3.452 136.759   2.261   4.212 143.379
 Approx polarizability: 169.293  -4.617 153.917   0.916   7.001 175.736

                      1                      2                      3
                      A                      A                      A
 Frequencies --     46.5524                63.0559                72.8021
 Red. masses --      3.1761                 3.7274                 2.7649
 Frc consts  --      0.0041                 0.0087                 0.0086
 IR Inten    --      1.1237                 2.0990                 1.8158

                      4                      5                      6
                      A                      A                      A
 Frequencies --     82.5742                99.6864               115.9977
 Red. masses --      3.3473                 2.8770                 2.3698
 Frc consts  --      0.0134                 0.0168                 0.0188
 IR Inten    --      1.8096                 6.9257                 5.2974

                      7                      8                      9
                      A                      A                      A
 Frequencies --    128.8382               155.0848               165.1758
 Red. masses --      2.9115                 2.1436                 1.4090
 Frc consts  --      0.0285                 0.0304                 0.0226
 IR Inten    --     10.3965                 5.8423                 5.6257

                     10                     11                     12
                      A                      A                      A
 Frequencies --    174.7331               196.7855               204.6430
 Red. masses --      1.3656                 1.5904                 3.4732
 Frc consts  --      0.0246                 0.0363                 0.0857
 IR Inten    --      1.2706                 1.6758                 0.4567

                     13                     14                     15
                      A                      A                      A
 Frequencies --    232.9227               252.5309               270.8973
 Red. masses --      1.4698                 2.6554                 1.8794
 Frc consts  --      0.0470                 0.0998                 0.0813
 IR Inten    --      1.5081                 4.2516                10.5479

                     16                     17                     18
                      A                      A                      A
 Frequencies --    283.6914               310.2744               317.2769
 Red. masses --      2.2639                 3.8237                 4.5711
 Frc consts  --      0.1073                 0.2169                 0.2711
 IR Inten    --      5.3083                 1.9483                 5.7488

                     19                     20                     21
                      A                      A                      A
 Frequencies --    340.2788               398.7981               417.4875
 Red. masses --      4.0108                 4.3157                 3.9587
 Frc consts  --      0.2736                 0.4044                 0.4065
 IR Inten    --      0.9708                26.1122                10.0825

                     22                     23                     24
                      A                      A                      A
 Frequencies --    442.6401               488.5151               499.1543
 Red. masses --      5.5463                 3.6700                 4.8358
 Frc consts  --      0.6403                 0.5160                 0.7099
 IR Inten    --      2.0732                25.8267                12.6025

                     25                     26                     27
                      A                      A                      A
 Frequencies --    552.8183               573.6382               620.5905
 Red. masses --      3.3961                 3.8311                 4.1464
 Frc consts  --      0.6115                 0.7428                 0.9409
 IR Inten    --      2.2180                21.8227                 5.0505

                     28                     29                     30
                      A                      A                      A
 Frequencies --    754.3451               766.8102               818.5205
 Red. masses --      3.5552                 3.4050                 3.0219
 Frc consts  --      1.1919                 1.1796                 1.1929
 IR Inten    --     94.7571                25.8690                 2.3117

                     31                     32                     33
                      A                      A                      A
 Frequencies --    923.1486               946.6024               971.2050
 Red. masses --      3.1060                 3.8254                 3.2597
 Frc consts  --      1.5595                 2.0196                 1.8115
 IR Inten    --     32.3623                75.9502                38.7793

                     34                     35                     36
                      A                      A                      A
 Frequencies --    984.0425              1012.2458              1027.7839
 Red. masses --      4.2771                 4.1308                 3.2377
 Frc consts  --      2.4402                 2.4938                 2.0151
 IR Inten    --     17.4040                 9.4742                33.7222

                     37                     38                     39
                      A                      A                      A
 Frequencies --   1060.4424              1075.4126              1117.7239
 Red. masses --      2.5313                 3.1235                 2.3346
 Frc consts  --      1.6771                 2.1283                 1.7184
 IR Inten    --     40.8638               201.9845                74.4890

                     40                     41                     42
                      A                      A                      A
 Frequencies --   1125.2508              1138.3219              1155.7426
 Red. masses --      2.4662                 3.6969                 4.1471
 Frc consts  --      1.8399                 2.8224                 3.2638
 IR Inten    --    101.9776               146.0234               274.2339

                     43                     44                     45
                      A                      A                      A
 Frequencies --   1160.6056              1168.2969              1183.8970
 Red. masses --      3.6842                 2.5542                 1.2652
 Frc consts  --      2.9239                 2.0541                 1.0448
 IR Inten    --     26.3964                85.7306                 2.6032

                     46                     47                     48
                      A                      A                      A
 Frequencies --   1187.9497              1188.2904              1191.1643
 Red. masses --      1.3512                 1.2929                 1.2705
 Frc consts  --      1.1235                 1.0756                 1.0621
 IR Inten    --     15.7252                 5.2213                 4.6011

                     49                     50                     51
                      A                      A                      A
 Frequencies --   1222.2647              1225.6453              1232.8576
 Red. masses --      1.5157                 1.7030                 1.5540
 Frc consts  --      1.3341                 1.5073                 1.3917
 IR Inten    --     74.3672                47.6338                36.8636

                     52                     53                     54
                      A                      A                      A
 Frequencies --   1234.6586              1244.1123              1265.4234
 Red. masses --      1.6661                 1.3492                 1.2796
 Frc consts  --      1.4964                 1.2304                 1.2072
 IR Inten    --     56.8312                60.9063                 9.7342

                     55                     56                     57
                      A                      A                      A
 Frequencies --   1290.8635              1326.2351              1339.5301
 Red. masses --      1.3342                 1.2555                 1.2919
 Frc consts  --      1.3099                 1.3011                 1.3658
 IR Inten    --      6.1206                17.2362                28.8027

                     58                     59                     60
                      A                      A                      A
 Frequencies --   1346.9993              1357.2228              1402.0487
 Red. masses --      1.3093                 1.2506                 1.3561
 Frc consts  --      1.3996                 1.3573                 1.5706
 IR Inten    --     23.3284                29.6721                 7.2542

                     61                     62                     63
                      A                      A                      A
 Frequencies --   1407.2543              1430.1735              1446.3734
 Red. masses --      1.4278                 1.3326                 1.3258
 Frc consts  --      1.6659                 1.6060                 1.6341
 IR Inten    --     56.0514                14.8597                25.9384

                     64                     65                     66
                      A                      A                      A
 Frequencies --   1496.7695              1499.0458              1499.2333
 Red. masses --      1.1448                 1.1304                 1.1351
 Frc consts  --      1.5111                 1.4967                 1.5032
 IR Inten    --      1.5099                 0.6478                 1.0285

                     67                     68                     69
                      A                      A                      A
 Frequencies --   1504.3867              1509.0208              1512.0190
 Red. masses --      1.1032                 1.0788                 1.0572
 Frc consts  --      1.4711                 1.4473                 1.4240
 IR Inten    --      1.2032                 8.7230                 9.9502

                     70                     71                     72
                      A                      A                      A
 Frequencies --   1513.4103              1522.5536              1527.7158
 Red. masses --      1.0582                 1.0488                 1.0616
 Frc consts  --      1.4281                 1.4324                 1.4598
 IR Inten    --     10.0952                 7.8359                16.0278

                     73                     74                     75
                      A                      A                      A
 Frequencies --   1528.9868              1530.5835              1535.9285
 Red. masses --      1.0633                 1.0519                 1.0606
 Frc consts  --      1.4646                 1.4519                 1.4742
 IR Inten    --     16.2106                17.8652                15.3476

                     76                     77                     78
                      A                      A                      A
 Frequencies --   1573.2724              1636.4988              2946.7256
 Red. masses --      1.0785                 5.5500                 1.0767
 Frc consts  --      1.5729                 8.7573                 5.5081
 IR Inten    --     13.3013               200.1098                36.5395

                     79                     80                     81
                      A                      A                      A
 Frequencies --   3022.4831              3026.4705              3031.7950
 Red. masses --      1.0497                 1.0416                 1.0371
 Frc consts  --      5.6498                 5.6212                 5.6164
 IR Inten    --     29.2640                25.0634               119.7234

                     82                     83                     84
                      A                      A                      A
 Frequencies --   3032.4121              3044.6948              3058.0177
 Red. masses --      1.0368                 1.0381                 1.1069
 Frc consts  --      5.6170                 5.6700                 6.0987
 IR Inten    --     14.6555                50.7058                61.5687

                     85                     86                     87
                      A                      A                      A
 Frequencies --   3066.9350              3090.6649              3092.1410
 Red. masses --      1.0849                 1.1074                 1.1069
 Frc consts  --      6.0121                 6.2322                 6.2354
 IR Inten    --      7.7821                43.7635                54.7536

                     88                     89                     90
                      A                      A                      A
 Frequencies --   3102.6277              3126.5162              3131.0761
 Red. masses --      1.0969                 1.1005                 1.0858
 Frc consts  --      6.2213                 6.3381                 6.2718
 IR Inten    --     35.8800                27.7434                 3.9927

                     91                     92                     93
                      A                      A                      A
 Frequencies --   3167.8546              3168.2816              3169.7096
 Red. masses --      1.1007                 1.1008                 1.1010
 Frc consts  --      6.5079                 6.5106                 6.5173
 IR Inten    --     23.4535                20.2344                16.1011

                     94                     95                     96
                      A                      A                      A
 Frequencies --   3181.1176              3181.3686              3207.7944
 Red. masses --      1.0887                 1.1037                 1.0953
 Frc consts  --      6.4908                 6.5817                 6.6402
 IR Inten    --      2.0129                15.9481                 4.9196

 - Thermochemistry -
 -------------------
 Temperature   298.150 Kelvin.  Pressure   1.00000 Atm.
 Atom     1 has atomic number  6 and mass  12.00000

 Molecular mass:   219.12325 amu.
 Principal axes and moments of inertia in atomic units:
                           1         2         3
     Eigenvalues --  2654.806144006.767214483.96737
           X            0.99994   0.01060  -0.00311
           Y           -0.01071   0.99930  -0.03588
           Z            0.00272   0.03591   0.99935
 This molecule is an asymmetric top.
 Rotational symmetry number  1.
 Warning -- assumption of classical behavior for rotation
           may cause significant error
 Rotational temperatures (Kelvin)      0.03263     0.02162     0.01932
 Rotational constants (GHZ):           0.67980     0.45042     0.40249
 Zero-point vibrational energy     774432.6 (Joules/Mol)
                                  185.09383 (Kcal/Mol)
 Warning -- explicit consideration of  27 degrees of freedom as
           vibrations may cause significant error
 Vibrational temperatures:     66.98    90.72   104.75   118.81   143.43
          (Kelvin)            166.89   185.37   223.13   237.65   251.40
                              283.13   294.44   335.12   363.34   389.76
                              408.17   446.42   456.49   489.59   573.78
                              600.67   636.86   702.86   718.17   795.38
                              825.34   892.89  1085.33  1103.27  1177.67
                             1328.20  1361.95  1397.35  1415.82  1456.40
                             1478.75  1525.74  1547.28  1608.16  1618.98
                             1637.79  1662.86  1669.85  1680.92  1703.36
                             1709.19  1709.68  1713.82  1758.57  1763.43
                             1773.81  1776.40  1790.00  1820.66  1857.26
                             1908.16  1927.28  1938.03  1952.74  2017.24
                             2024.73  2057.70  2081.01  2153.52  2156.79
                             2157.06  2164.48  2171.14  2175.46  2177.46
                             2190.62  2198.04  2199.87  2202.17  2209.86
                             2263.59  2354.56  4239.68  4348.68  4354.42
                             4362.08  4362.96  4380.64  4399.81  4412.64
                             4446.78  4448.90  4463.99  4498.36  4504.92
                             4557.84  4558.45  4560.51  4576.92  4577.28
                             4615.30

 Zero-point correction=                           0.294966 (Hartree/Particle)
 Thermal correction to Energy=                    0.311988
 Thermal correction to Enthalpy=                  0.312932
 Thermal correction to Gibbs Free Energy=         0.250517
 Sum of electronic and zero-point Energies=           -768.027723
 Sum of electronic and thermal Energies=              -768.010701
 Sum of electronic and thermal Enthalpies=            -768.009757
 Sum of electronic and thermal Free Energies=         -768.072172

                     E (Thermal)             CV                S
                      KCal/Mol        Cal/Mol-Kelvin    Cal/Mol-Kelvin
 Total                  195.775             61.403            131.364
 Electronic               0.000              0.000              0.000
 Translational            0.889              2.981             42.056
 Rotational               0.889              2.981             32.234
 Vibrational            193.998             55.442             57.074
 Vibration     1          0.595              1.979              4.959
 Vibration     2          0.597              1.972              4.359
 Vibration     3          0.599              1.967              4.076
 Vibration     4          0.600              1.961              3.829
 Vibration     5          0.604              1.949              3.460
 Vibration     6          0.608              1.936              3.166
 Vibration     7          0.611              1.924              2.963
 Vibration     8          0.620              1.897              2.609
 Vibration     9          0.624              1.885              2.490
 Vibration    10          0.627              1.874              2.384
 Vibration    11          0.636              1.844              2.163
 Vibration    12          0.640              1.833              2.091
 Vibration    13          0.654              1.791              1.856
 Vibration    14          0.664              1.759              1.713
 Vibration    15          0.675              1.727              1.590
 Vibration    16          0.682              1.704              1.511
 Vibration    17          0.699              1.654              1.361
 Vibration    18          0.704              1.641              1.324
 Vibration    19          0.720              1.595              1.211
 Vibration    20          0.765              1.473              0.967
 Vibration    21          0.781              1.432              0.901
 Vibration    22          0.802              1.377              0.818
 Vibration    23          0.844              1.276              0.687
 Vibration    24          0.855              1.252              0.660
 Vibration    25          0.908              1.134              0.538
 Vibration    26          0.930              1.088              0.497
 Vibration    27          0.981              0.988              0.416

 Optimization completed.
    -- Stationary point found.
 Normal termination of Gaussian 16 at Fri May 24 08:52:13 2019.
