 Gaussian 16, Revision A.03,
 Gaussian 16:  ES64L-G16RevA.03 25-Dec-2016

 -------------------------------------------------------------------
 #p b3lyp 6-31g* opt freq=noraman scrf=(pcm,solvent=tetrahydrofuran)
 -------------------------------------------------------------------

 -----
 title
 -----
 Symbolic Z-matrix:
 Charge =  1 Multiplicity = 1

 SCF Done:  E(RB3LYP) =  -768.315738474     A.U. after   13 cycles
 Optimization completed.
    -- Stationary point found.
 Normal termination of Gaussian 16 at Fri May 24 08:37:17 2019.

 --------------------------------------------------------------------
 #P Geom=AllCheck Guess=TCheck SCRF=Check GenChk RB3LYP/6-31G(d) Freq
 --------------------------------------------------------------------

 Structure from the checkpoint file:  "/scratch/Gau-36654.chk"
 -----
 title
 -----
 Charge =  1 Multiplicity = 1

                         Standard orientation:
 ---------------------------------------------------------------------
 Center     Atomic      Atomic             Coordinates (Angstroms)
 Number     Number       Type             X           Y           Z
 ---------------------------------------------------------------------
      1          6           0       -1.097539   -0.150024    1.101977
      2          6           0       -2.066895   -0.387108   -0.061512
      3          6           0       -1.435547   -0.973581   -1.274833
      4          6           0        0.714549    0.099518   -0.805424
      5          6           0        0.273067    0.434682    0.646760
      6          1           0       -1.999301   -1.550073   -2.008101
      7          1           0       -2.927607   -0.973307    0.268410
      8          1           0       -1.544699    0.632674    1.719079
      9          1           0        0.733128    1.025570   -1.383358
     10          1           0        1.037170    0.043908    1.331036
     11          8           0       -0.245767   -0.738975   -1.610547
     12          8           0       -2.444118    0.850510   -0.676930
     13          8           0       -1.007020   -1.280742    1.942094
     14          8           0        0.160515    1.838317    0.785513
     15          6           0        2.042108   -0.644548   -0.961979
     16          1           0        2.222574   -0.844119   -2.028310
     17          1           0        2.008741   -1.613078   -0.438240
     18          8           0        3.021090    0.202021   -0.414482
     19          6           0       -3.863417    1.043546   -0.850617
     20          1           0       -4.364178    1.030447    0.122735
     21          1           0       -3.966379    2.024629   -1.314593
     22          1           0       -4.295355    0.279206   -1.504057
     23          6           0       -0.434137   -2.467057    1.404671
     24          1           0        0.622785   -2.334585    1.140862
     25          1           0       -0.502973   -3.221034    2.190266
     26          1           0       -0.982150   -2.840905    0.525655
     27          6           0        1.376508    2.522029    1.102236
     28          1           0        1.812645    2.131577    2.031255
     29          1           0        2.117146    2.437028    0.300074
     30          1           0        1.102021    3.569201    1.241972
     31          6           0        4.329570   -0.359262   -0.465383
     32          1           0        5.000493    0.370451   -0.009067
     33          1           0        4.640519   -0.543630   -1.502666
     34          1           0        4.378219   -1.302170    0.096492
 ---------------------------------------------------------------------

 SCF Done:  E(RB3LYP) =  -768.315738474     A.U. after    1 cycles

 The electronic state is 1-A.
 Alpha  occ. eigenvalues --  -19.32524 -19.23187 -19.19622 -19.18827 -19.18386
 Alpha  occ. eigenvalues --  -10.39526 -10.31732 -10.31521 -10.29208 -10.29183
 Alpha  occ. eigenvalues --  -10.27876 -10.26793 -10.26327 -10.24851 -10.24317
 Alpha  occ. eigenvalues --   -1.21296  -1.10321  -1.07998  -1.07194  -1.06360
 Alpha  occ. eigenvalues --   -0.86988  -0.85175  -0.77777  -0.74813  -0.74285
 Alpha  occ. eigenvalues --   -0.71224  -0.68576  -0.68174  -0.66577  -0.61186
 Alpha  occ. eigenvalues --   -0.59881  -0.58917  -0.57251  -0.54133  -0.53496
 Alpha  occ. eigenvalues --   -0.51712  -0.51497  -0.50878  -0.50523  -0.49743
 Alpha  occ. eigenvalues --   -0.48600  -0.48108  -0.47307  -0.45881  -0.45240
 Alpha  occ. eigenvalues --   -0.44921  -0.43204  -0.42194  -0.40772  -0.40315
 Alpha  occ. eigenvalues --   -0.39879  -0.38300  -0.36244  -0.35441  -0.34607
 Alpha  occ. eigenvalues --   -0.33220  -0.30373  -0.29160  -0.28636
 Alpha virt. eigenvalues --   -0.14787  -0.00357   0.03331   0.04366   0.06046
 Alpha virt. eigenvalues --    0.07102   0.08617   0.09486   0.09795   0.10204
 Alpha virt. eigenvalues --    0.11344   0.11621   0.12136   0.12468   0.13208

 Mulliken charges:
               1
     1  C    0.104944
     2  C    0.025606
     3  C    0.281919
     4  C    0.052013
     5  C    0.092942
     6  H    0.279908
     7  H    0.228031
     8  H    0.215570
     9  H    0.246983
    10  H    0.194506
    11  O   -0.317990
    12  O   -0.456695
    13  O   -0.467568
    14  O   -0.492232
    15  C   -0.036679
    16  H    0.175792
    17  H    0.166847
    18  O   -0.474938
    19  C   -0.232587
    20  H    0.189848
    21  H    0.205117
    22  H    0.184457
    23  C   -0.248409
    24  H    0.164532
    25  H    0.202210
    26  H    0.151191
    27  C   -0.225006
    28  H    0.158072
    29  H    0.168171
    30  H    0.176345
    31  C   -0.211944
    32  H    0.181711
    33  H    0.159545
    34  H    0.157790
 Sum of Mulliken charges =   1.00000

 Dipole moment (field-independent basis, Debye):
    X=             -3.1976    Y=             -4.1204    Z=             -3.9910  Tot=              6.5674
 Quadrupole moment (field-independent basis, Debye-Ang):
   XX=            -47.0182   YY=            -75.3015   ZZ=            -82.0019
   XY=              1.1225   XZ=              7.2896   YZ=              3.8244

  Exact polarizability: 169.640  -2.851 142.748   2.057   1.977 126.462
 Approx polarizability: 176.513  -5.322 168.241  -2.150   3.441 149.764

                      1                      2                      3
                      A                      A                      A
 Frequencies --     39.1773                58.9806                70.7887
 Red. masses --      4.1008                 3.8618                 2.8410
 Frc consts  --      0.0037                 0.0079                 0.0084
 IR Inten    --      0.5627                 0.7491                 6.6429

                      4                      5                      6
                      A                      A                      A
 Frequencies --     86.3181                88.6987               103.9990
 Red. masses --      2.5504                 2.2579                 3.1339
 Frc consts  --      0.0112                 0.0105                 0.0200
 IR Inten    --      0.0786                 7.2141                 2.2941

                      7                      8                      9
                      A                      A                      A
 Frequencies --    124.3197               146.7670               164.8227
 Red. masses --      3.4745                 3.0230                 3.4845
 Frc consts  --      0.0316                 0.0384                 0.0558
 IR Inten    --      1.7256                 2.9090                 2.5325

                     10                     11                     12
                      A                      A                      A
 Frequencies --    178.7525               187.2987               205.6689
 Red. masses --      1.7040                 1.2100                 1.4229
 Frc consts  --      0.0321                 0.0250                 0.0355
 IR Inten    --      8.9888                 0.5561                 3.5357

                     13                     14                     15
                      A                      A                      A
 Frequencies --    229.6344               254.8352               262.5491
 Red. masses --      1.6535                 1.5720                 3.1935
 Frc consts  --      0.0514                 0.0601                 0.1297
 IR Inten    --     11.4941                 6.7253                15.9546

                     16                     17                     18
                      A                      A                      A
 Frequencies --    290.2662               303.5572               321.0275
 Red. masses --      3.4317                 3.5898                 2.1580
 Frc consts  --      0.1704                 0.1949                 0.1310
 IR Inten    --     30.5167                 8.0250                 4.8792

                     19                     20                     21
                      A                      A                      A
 Frequencies --    338.8018               355.6084               388.9010
 Red. masses --      2.9950                 4.2072                 3.3708
 Frc consts  --      0.2026                 0.3135                 0.3004
 IR Inten    --     31.8690                 3.1637                 8.6503

                     22                     23                     24
                      A                      A                      A
 Frequencies --    395.2429               472.3074               494.2098
 Red. masses --      4.7542                 3.9145                 6.3555
 Frc consts  --      0.4376                 0.5145                 0.9146
 IR Inten    --      2.2723                20.2937                 1.1777

                     25                     26                     27
                      A                      A                      A
 Frequencies --    539.9271               582.8644               606.0495
 Red. masses --      3.5705                 4.3238                 4.7638
 Frc consts  --      0.6133                 0.8655                 1.0309
 IR Inten    --     27.9604                13.8576                33.8229

                     28                     29                     30
                      A                      A                      A
 Frequencies --    782.5409               859.7864               893.1989
 Red. masses --      6.0446                 3.6039                 2.9954
 Frc consts  --      2.1809                 1.5697                 1.4080
 IR Inten    --     52.5425                18.7446                29.7987

                     31                     32                     33
                      A                      A                      A
 Frequencies --    910.1048               925.9727               953.5388
 Red. masses --      3.7538                 3.1599                 2.1360
 Frc consts  --      1.8319                 1.5963                 1.1443
 IR Inten    --     37.2187                36.5115                 7.8158

                     34                     35                     36
                      A                      A                      A
 Frequencies --    969.4380               999.5055              1006.9943
 Red. masses --      4.3505                 3.5188                 3.4647
 Frc consts  --      2.4090                 2.0711                 2.0700
 IR Inten    --     23.6280                34.8646                66.9609

                     37                     38                     39
                      A                      A                      A
 Frequencies --   1036.3355              1085.8257              1100.6386
 Red. masses --      2.3439                 4.7852                 2.3386
 Frc consts  --      1.4832                 3.3241                 1.6691
 IR Inten    --     26.5139               234.5162                40.1967

                     40                     41                     42
                      A                      A                      A
 Frequencies --   1117.8457              1137.0757              1152.2939
 Red. masses --      2.7596                 3.9885                 1.8924
 Frc consts  --      2.0317                 3.0384                 1.4804
 IR Inten    --      9.9571               154.6996                 9.8400

                     43                     44                     45
                      A                      A                      A
 Frequencies --   1158.3698              1167.3148              1180.6374
 Red. masses --      3.9488                 3.9731                 1.2773
 Frc consts  --      3.1218                 3.1897                 1.0490
 IR Inten    --    191.5495               180.7633                 7.7169

                     46                     47                     48
                      A                      A                      A
 Frequencies --   1184.5332              1187.8744              1190.5778
 Red. masses --      1.2473                 1.2847                 1.3017
 Frc consts  --      1.0311                 1.0680                 1.0871
 IR Inten    --      1.4034                 0.6302                 5.4246

                     49                     50                     51
                      A                      A                      A
 Frequencies --   1207.4269              1226.2340              1233.8563
 Red. masses --      1.3907                 1.5457                 1.5643
 Frc consts  --      1.1945                 1.3694                 1.4031
 IR Inten    --      3.9388                13.6518                50.4552

                     52                     53                     54
                      A                      A                      A
 Frequencies --   1236.6046              1256.8294              1272.3075
 Red. masses --      1.7461                 1.4437                 1.3708
 Frc consts  --      1.5732                 1.3436                 1.3074
 IR Inten    --     38.8085                22.7748                10.4802

                     55                     56                     57
                      A                      A                      A
 Frequencies --   1325.9669              1340.0528              1352.6710
 Red. masses --      1.2661                 1.2668                 1.1856
 Frc consts  --      1.3115                 1.3403                 1.2781
 IR Inten    --     20.2046                17.1104                27.0024

                     58                     59                     60
                      A                      A                      A
 Frequencies --   1355.5676              1387.1530              1391.9330
 Red. masses --      1.2607                 1.2472                 1.6748
 Frc consts  --      1.3649                 1.4140                 1.9118
 IR Inten    --      5.2923                 4.9663                26.1855

                     61                     62                     63
                      A                      A                      A
 Frequencies --   1420.1854              1434.1732              1451.4982
 Red. masses --      1.3258                 1.3926                 1.3622
 Frc consts  --      1.5755                 1.6876                 1.6909
 IR Inten    --     13.3819                16.1602                28.5890

                     64                     65                     66
                      A                      A                      A
 Frequencies --   1496.1147              1498.5844              1499.8352
 Red. masses --      1.1342                 1.1464                 1.1211
 Frc consts  --      1.4958                 1.5169                 1.4858
 IR Inten    --     18.5300                 1.4434                 2.2511

                     67                     68                     69
                      A                      A                      A
 Frequencies --   1505.6221              1507.4107              1510.8913
 Red. masses --      1.1303                 1.0488                 1.0628
 Frc consts  --      1.5097                 1.4041                 1.4295
 IR Inten    --      0.3678                10.0335                 4.1467

                     70                     71                     72
                      A                      A                      A
 Frequencies --   1511.8793              1524.6576              1525.7560
 Red. masses --      1.0494                 1.0555                 1.0617
 Frc consts  --      1.4133                 1.4456                 1.4562
 IR Inten    --     12.5832                20.2913                 1.7377

                     73                     74                     75
                      A                      A                      A
 Frequencies --   1527.7172              1531.9572              1533.7450
 Red. masses --      1.0591                 1.0661                 1.0593
 Frc consts  --      1.4564                 1.4741                 1.4682
 IR Inten    --     21.4563                23.9191                13.1570

                     76                     77                     78
                      A                      A                      A
 Frequencies --   1560.1188              1643.6711              3002.0313
 Red. masses --      1.0861                 5.9363                 1.0480
 Frc consts  --      1.5575                 9.4492                 5.5645
 IR Inten    --      3.7124               297.8087                57.1533

                     79                     80                     81
                      A                      A                      A
 Frequencies --   3008.8731              3024.4897              3036.1289
 Red. masses --      1.0547                 1.0368                 1.0381
 Frc consts  --      5.6261                 5.5878                 5.6378
 IR Inten    --     53.5721                72.9287                55.7100

                     82                     83                     84
                      A                      A                      A
 Frequencies --   3048.9904              3052.5414              3059.5509
 Red. masses --      1.1050                 1.0843                 1.0313
 Frc consts  --      6.0523                 5.9531                 5.6877
 IR Inten    --     58.5106                21.2812                47.5065

                     85                     86                     87
                      A                      A                      A
 Frequencies --   3080.4216              3082.3900              3109.9419
 Red. masses --      1.1069                 1.0909                 1.1003
 Frc consts  --      6.1886                 6.1067                 6.2700
 IR Inten    --     52.0138                70.8725                40.7311

                     88                     89                     90
                      A                      A                      A
 Frequencies --   3123.2658              3130.1020              3135.1028
 Red. masses --      1.0864                 1.0879                 1.1092
 Frc consts  --      6.2439                 6.2801                 6.4234
 IR Inten    --      2.6567                 2.9441                24.2377

                     91                     92                     93
                      A                      A                      A
 Frequencies --   3143.7440              3163.4872              3163.8979
 Red. masses --      1.0867                 1.1034                 1.1002
 Frc consts  --      6.3280                 6.5062                 6.4888
 IR Inten    --      1.7959                20.9827                30.8688

                     94                     95                     96
                      A                      A                      A
 Frequencies --   3166.4036              3187.8747              3210.8897
 Red. masses --      1.0980                 1.1044                 1.0944
 Frc consts  --      6.4862                 6.6129                 6.6478
 IR Inten    --     19.2182                 9.0150                 1.8875

 - Thermochemistry -
 -------------------
 Temperature   298.150 Kelvin.  Pressure   1.00000 Atm.
 Atom     1 has atomic number  6 and mass  12.00000

 Molecular mass:   219.12325 amu.
 Principal axes and moments of inertia in atomic units:
                           1         2         3
     Eigenvalues --  2185.916284481.396504788.90392
           X            0.99996  -0.00560   0.00660
           Y            0.00552   0.99992   0.01130
           Z           -0.00666  -0.01126   0.99991
 This molecule is an asymmetric top.
 Rotational symmetry number  1.
 Warning -- assumption of classical behavior for rotation
           may cause significant error
 Rotational temperatures (Kelvin)      0.03962     0.01933     0.01809
 Rotational constants (GHZ):           0.82562     0.40272     0.37686
 Zero-point vibrational energy     774536.1 (Joules/Mol)
                                  185.11857 (Kcal/Mol)
 Warning -- explicit consideration of  27 degrees of freedom as
           vibrations may cause significant error
 Vibrational temperatures:     56.37    84.86   101.85   124.19   127.62
          (Kelvin)            149.63   178.87   211.16   237.14   257.19
                              269.48   295.91   330.39   366.65   377.75
                              417.63   436.75   461.89   487.46   511.64
                              559.54   568.67   679.55   711.06   776.83
                              838.61   871.97  1125.90  1237.04  1285.11
                             1309.44  1332.27  1371.93  1394.80  1438.07
                             1448.84  1491.06  1562.26  1583.57  1608.33
                             1636.00  1657.89  1666.64  1679.51  1698.67
                             1704.28  1709.09  1712.98  1737.22  1764.28
                             1775.24  1779.20  1808.30  1830.57  1907.77
                             1928.04  1946.19  1950.36  1995.80  2002.68
                             2043.33  2063.46  2088.38  2152.58  2156.13
                             2157.93  2166.25  2168.83  2173.84  2175.26
                             2193.64  2195.22  2198.04  2204.14  2206.72
                             2244.66  2364.88  4319.25  4329.10  4351.57
                             4368.31  4386.82  4391.93  4402.01  4432.04
                             4434.87  4474.51  4493.68  4503.52  4510.71
                             4523.15  4551.55  4552.14  4555.75  4586.64
                             4619.75

 Zero-point correction=                           0.295005 (Hartree/Particle)
 Thermal correction to Energy=                    0.312239
 Thermal correction to Enthalpy=                  0.313183
 Thermal correction to Gibbs Free Energy=         0.250027
 Sum of electronic and zero-point Energies=           -768.020733
 Sum of electronic and thermal Energies=              -768.003500
 Sum of electronic and thermal Enthalpies=            -768.002555
 Sum of electronic and thermal Free Energies=         -768.065711

                     E (Thermal)             CV                S
                      KCal/Mol        Cal/Mol-Kelvin    Cal/Mol-Kelvin
 Total                  195.933             61.602            132.923
 Electronic               0.000              0.000              0.000
 Translational            0.889              2.981             42.056
 Rotational               0.889              2.981             32.217
 Vibrational            194.155             55.641             58.649
 Vibration     1          0.594              1.981              5.300
 Vibration     2          0.596              1.974              4.491
 Vibration     3          0.598              1.968              4.131
 Vibration     4          0.601              1.959              3.742
 Vibration     5          0.602              1.957              3.689
 Vibration     6          0.605              1.946              3.378
 Vibration     7          0.610              1.929              3.032
 Vibration     8          0.617              1.906              2.714
 Vibration     9          0.623              1.886              2.494
 Vibration    10          0.629              1.868              2.341
 Vibration    11          0.632              1.857              2.254
 Vibration    12          0.640              1.832              2.082
 Vibration    13          0.652              1.796              1.882
 Vibration    14          0.665              1.755              1.697
 Vibration    15          0.670              1.741              1.645
 Vibration    16          0.686              1.692              1.472
 Vibration    17          0.695              1.667              1.397
 Vibration    18          0.706              1.633              1.305
 Vibration    19          0.719              1.598              1.218
 Vibration    20          0.731              1.564              1.141
 Vibration    21          0.757              1.494              1.004
 Vibration    22          0.762              1.480              0.980
 Vibration    23          0.829              1.311              0.731
 Vibration    24          0.850              1.263              0.673
 Vibration    25          0.895              1.162              0.565
 Vibration    26          0.940              1.068              0.480
 Vibration    27          0.965              1.019              0.439

 Optimization completed.
    -- Stationary point found.
 Normal termination of Gaussian 16 at Fri May 24 09:24:55 2019.
