 Gaussian 16, Revision A.03,
 Gaussian 16:  ES64L-G16RevA.03 25-Dec-2016

 -------------------------------------------------------------------
 #p b3lyp 6-31g* opt freq=noraman scrf=(pcm,solvent=tetrahydrofuran)
 -------------------------------------------------------------------

 -----
 title
 -----
 Symbolic Z-matrix:
 Charge =  1 Multiplicity = 1

 SCF Done:  E(RB3LYP) =  -768.323740804     A.U. after   14 cycles
 Optimization completed.
    -- Stationary point found.
 Normal termination of Gaussian 16 at Fri May 24 08:33:33 2019.

 --------------------------------------------------------------------
 #P Geom=AllCheck Guess=TCheck SCRF=Check GenChk RB3LYP/6-31G(d) Freq
 --------------------------------------------------------------------

 Structure from the checkpoint file:  "/scratch/Gau-13132.chk"
 -----
 title
 -----
 Charge =  1 Multiplicity = 1

                         Standard orientation:
 ---------------------------------------------------------------------
 Center     Atomic      Atomic             Coordinates (Angstroms)
 Number     Number       Type             X           Y           Z
 ---------------------------------------------------------------------
      1          6           0       -1.589333   -0.565746   -0.024933
      2          6           0       -1.626307    0.869414   -0.589723
      3          6           0       -0.539756    0.902314   -1.640152
      4          6           0        0.939636    0.003969    0.029644
      5          6           0       -0.172977   -0.971903    0.488287
      6          1           0       -0.670734    1.242362   -2.668056
      7          1           0       -2.600596    1.069500   -1.043088
      8          1           0       -2.315667   -0.645751    0.793726
      9          1           0        0.964728    0.907532    0.636704
     10          1           0        0.040928   -1.942914    0.031704
     11          8           0        0.624523    0.530565   -1.358443
     12          8           0       -1.293919    1.794965    0.420651
     13          8           0       -1.961389   -1.352419   -1.142706
     14          8           0       -0.069878   -1.212891    1.873693
     15          6           0        2.310226   -0.619636   -0.074390
     16          1           0        2.487950   -1.161146    0.868701
     17          1           0        2.328976   -1.357673   -0.892686
     18          8           0        3.247140    0.409367   -0.277292
     19          6           0       -1.820079    3.122600    0.234829
     20          1           0       -2.905071    3.085492    0.089342
     21          1           0       -1.588202    3.659196    1.155100
     22          1           0       -1.347143    3.630913   -0.612087
     23          6           0       -2.480659   -2.644345   -0.821153
     24          1           0       -3.370389   -2.554006   -0.185100
     25          1           0       -2.752682   -3.109949   -1.769525
     26          1           0       -1.736328   -3.270162   -0.313058
     27          6           0       -0.344963   -0.138874    2.781146
     28          1           0        0.434822    0.631387    2.756635
     29          1           0       -1.314151    0.329847    2.585767
     30          1           0       -0.356161   -0.595925    3.771910
     31          6           0        4.579497   -0.076205   -0.393156
     32          1           0        4.892806   -0.603476    0.519030
     33          1           0        4.683686   -0.756459   -1.250350
     34          1           0        5.219694    0.795020   -0.544301
 ---------------------------------------------------------------------

 SCF Done:  E(RB3LYP) =  -768.323740804     A.U. after    1 cycles

 The electronic state is 1-A.
 Alpha  occ. eigenvalues --  -19.33002 -19.22058 -19.19777 -19.19395 -19.18075
 Alpha  occ. eigenvalues --  -10.39566 -10.31656 -10.31515 -10.29673 -10.29638
 Alpha  occ. eigenvalues --  -10.27415 -10.26537 -10.25497 -10.25091 -10.24466
 Alpha  occ. eigenvalues --   -1.21754  -1.10026  -1.08145  -1.07049  -1.06435
 Alpha  occ. eigenvalues --   -0.86863  -0.85445  -0.76937  -0.75137  -0.73850
 Alpha  occ. eigenvalues --   -0.71126  -0.68973  -0.68360  -0.65992  -0.61204
 Alpha  occ. eigenvalues --   -0.61148  -0.58489  -0.56899  -0.54470  -0.53348
 Alpha  occ. eigenvalues --   -0.52030  -0.51389  -0.50624  -0.49773  -0.49591
 Alpha  occ. eigenvalues --   -0.48636  -0.48178  -0.46782  -0.46079  -0.45662
 Alpha  occ. eigenvalues --   -0.44169  -0.42808  -0.42249  -0.41943  -0.40944
 Alpha  occ. eigenvalues --   -0.39565  -0.37315  -0.36823  -0.35249  -0.34759
 Alpha  occ. eigenvalues --   -0.32931  -0.31264  -0.28877  -0.28430
 Alpha virt. eigenvalues --   -0.15715   0.00637   0.04218   0.05548   0.06537
 Alpha virt. eigenvalues --    0.07090   0.07890   0.09079   0.09687   0.10389
 Alpha virt. eigenvalues --    0.10835   0.11865   0.11965   0.12470   0.13026

 Mulliken charges:
               1
     1  C    0.070762
     2  C    0.047545
     3  C    0.308098
     4  C    0.034242
     5  C    0.110784
     6  H    0.280709
     7  H    0.217249
     8  H    0.199987
     9  H    0.242627
    10  H    0.202219
    11  O   -0.292545
    12  O   -0.474749
    13  O   -0.497580
    14  O   -0.478997
    15  C   -0.025589
    16  H    0.182679
    17  H    0.169350
    18  O   -0.483656
    19  C   -0.229411
    20  H    0.181269
    21  H    0.200175
    22  H    0.177171
    23  C   -0.225125
    24  H    0.169301
    25  H    0.187981
    26  H    0.167208
    27  C   -0.235744
    28  H    0.163848
    29  H    0.168193
    30  H    0.186180
    31  C   -0.211627
    32  H    0.155558
    33  H    0.154561
    34  H    0.177328
 Sum of Mulliken charges =   1.00000

 Dipole moment (field-independent basis, Debye):
    X=             -3.0517    Y=              2.3269    Z=             -2.7111  Tot=              4.6987
 Quadrupole moment (field-independent basis, Debye-Ang):
   XX=            -62.8082   YY=            -69.2151   ZZ=            -75.9336
   XY=             -7.3216   XZ=              1.8903   YZ=             -1.0012

  Exact polarizability: 153.080  -2.894 140.209   4.356   0.430 138.914
 Approx polarizability: 163.091  -3.661 157.294   4.544  -0.822 164.713

                      1                      2                      3
                      A                      A                      A
 Frequencies --     33.6408                52.0838                66.5997
 Red. masses --      3.8881                 3.0389                 3.1826
 Frc consts  --      0.0026                 0.0049                 0.0083
 IR Inten    --      2.9367                 1.8363                 2.7257

                      4                      5                      6
                      A                      A                      A
 Frequencies --     81.9389                87.5356               103.7391
 Red. masses --      3.0330                 2.0463                 2.3079
 Frc consts  --      0.0120                 0.0092                 0.0146
 IR Inten    --      3.3061                 1.5908                 3.2165

                      7                      8                      9
                      A                      A                      A
 Frequencies --    105.8738               128.7089               155.1440
 Red. masses --      2.3211                 3.1630                 2.1443
 Frc consts  --      0.0153                 0.0309                 0.0304
 IR Inten    --      7.2097                 8.6818                 5.5156

                     10                     11                     12
                      A                      A                      A
 Frequencies --    170.4724               182.6657               201.8598
 Red. masses --      1.5007                 1.4188                 1.6665
 Frc consts  --      0.0257                 0.0279                 0.0400
 IR Inten    --      0.5489                 5.4066                 1.5783

                     13                     14                     15
                      A                      A                      A
 Frequencies --    225.2202               242.0624               255.0347
 Red. masses --      1.6777                 1.9574                 3.0548
 Frc consts  --      0.0501                 0.0676                 0.1171
 IR Inten    --      4.2850                12.9504                 5.3154

                     16                     17                     18
                      A                      A                      A
 Frequencies --    264.1953               288.4663               327.9423
 Red. masses --      3.3773                 3.6115                 3.4236
 Frc consts  --      0.1389                 0.1771                 0.2169
 IR Inten    --     10.7607                 1.8993                14.3386

                     19                     20                     21
                      A                      A                      A
 Frequencies --    340.6710               352.3587               407.5756
 Red. masses --      3.1858                 3.1101                 4.4554
 Frc consts  --      0.2178                 0.2275                 0.4361
 IR Inten    --      5.3220                 2.2156                 6.5391

                     22                     23                     24
                      A                      A                      A
 Frequencies --    434.1252               477.7457               508.7317
 Red. masses --      4.6803                 3.8712                 4.1771
 Frc consts  --      0.5197                 0.5206                 0.6369
 IR Inten    --     12.5849                24.2331                13.8419

                     25                     26                     27
                      A                      A                      A
 Frequencies --    518.9779               578.7244               614.7555
 Red. masses --      4.3567                 4.0768                 3.5040
 Frc consts  --      0.6914                 0.8045                 0.7802
 IR Inten    --     17.3415                22.5027                 4.4941

                     28                     29                     30
                      A                      A                      A
 Frequencies --    719.2516               856.7297               876.1026
 Red. masses --      3.8672                 4.0631                 2.9483
 Frc consts  --      1.1787                 1.7571                 1.3333
 IR Inten    --     47.0904                28.5232                34.7563

                     31                     32                     33
                      A                      A                      A
 Frequencies --    921.8741               933.8759               957.5472
 Red. masses --      3.7125                 4.4695                 3.9946
 Frc consts  --      1.8589                 2.2966                 2.1580
 IR Inten    --      7.6367                93.9537                 6.6734

                     34                     35                     36
                      A                      A                      A
 Frequencies --    971.0668               998.4477              1022.1027
 Red. masses --      3.7599                 2.2647                 2.6321
 Frc consts  --      2.0889                 1.3302                 1.6201
 IR Inten    --     23.5784                42.7493                30.0721

                     37                     38                     39
                      A                      A                      A
 Frequencies --   1045.1775              1066.0104              1104.7671
 Red. masses --      3.1510                 2.3457                 4.1096
 Frc consts  --      2.0281                 1.5705                 2.9553
 IR Inten    --     24.4794                 2.4657                52.5908

                     40                     41                     42
                      A                      A                      A
 Frequencies --   1120.8843              1142.5451              1144.7443
 Red. masses --      3.9300                 3.1127                 3.6232
 Frc consts  --      2.9091                 2.3941                 2.7974
 IR Inten    --    115.8329               181.7271               210.9604

                     43                     44                     45
                      A                      A                      A
 Frequencies --   1158.6257              1165.5285              1182.6681
 Red. masses --      4.0092                 3.1787                 1.2634
 Frc consts  --      3.1710                 2.5441                 1.0411
 IR Inten    --    119.8366               132.1158                 6.8765

                     46                     47                     48
                      A                      A                      A
 Frequencies --   1183.6734              1189.0445              1192.1972
 Red. masses --      1.2772                 1.3021                 1.3170
 Frc consts  --      1.0543                 1.0846                 1.1028
 IR Inten    --      3.3469                 3.7948                 5.5545

                     49                     50                     51
                      A                      A                      A
 Frequencies --   1218.2453              1219.7497              1229.0741
 Red. masses --      1.4564                 1.4947                 1.5552
 Frc consts  --      1.2735                 1.3102                 1.3842
 IR Inten    --     63.2340                16.3051                27.5083

                     52                     53                     54
                      A                      A                      A
 Frequencies --   1235.0379              1266.7680              1283.8017
 Red. masses --      1.6344                 1.4372                 1.6658
 Frc consts  --      1.4689                 1.3589                 1.6176
 IR Inten    --     22.1298                15.2879                 7.0693

                     55                     56                     57
                      A                      A                      A
 Frequencies --   1298.1689              1339.4045              1348.5527
 Red. masses --      1.1744                 1.2490                 1.1809
 Frc consts  --      1.1661                 1.3202                 1.2653
 IR Inten    --     15.7096                 3.9757                34.1353

                     58                     59                     60
                      A                      A                      A
 Frequencies --   1367.2606              1377.3563              1411.9961
 Red. masses --      1.2551                 1.2324                 1.3525
 Frc consts  --      1.3824                 1.3775                 1.5887
 IR Inten    --     12.6318                 6.0141                11.3617

                     61                     62                     63
                      A                      A                      A
 Frequencies --   1416.3624              1429.2441              1452.5888
 Red. masses --      1.2502                 1.3785                 1.4236
 Frc consts  --      1.4777                 1.6591                 1.7697
 IR Inten    --     21.3508                20.2099                30.8756

                     64                     65                     66
                      A                      A                      A
 Frequencies --   1497.1535              1498.9067              1499.6245
 Red. masses --      1.1191                 1.1237                 1.1463
 Frc consts  --      1.4779                 1.4875                 1.5188
 IR Inten    --      3.3012                 4.1826                 5.4557

                     67                     68                     69
                      A                      A                      A
 Frequencies --   1505.7079              1510.6199              1516.1362
 Red. masses --      1.0950                 1.0458                 1.0615
 Frc consts  --      1.4626                 1.4061                 1.4376
 IR Inten    --      1.3021                 9.2742                 5.4696

                     70                     71                     72
                      A                      A                      A
 Frequencies --   1516.8390              1517.9019              1521.1609
 Red. masses --      1.0850                 1.0704                 1.0637
 Frc consts  --      1.4708                 1.4530                 1.4502
 IR Inten    --      4.3171                34.2836                13.2868

                     73                     74                     75
                      A                      A                      A
 Frequencies --   1523.1347              1526.6416              1531.3132
 Red. masses --      1.0458                 1.0621                 1.0475
 Frc consts  --      1.4294                 1.4584                 1.4472
 IR Inten    --     17.3728                 8.6561                21.2532

                     76                     77                     78
                      A                      A                      A
 Frequencies --   1542.9561              1647.9287              3001.8447
 Red. masses --      1.1066                 6.5992                 1.0546
 Frc consts  --      1.5522                10.5589                 5.5990
 IR Inten    --      3.2979               145.2145                34.2345

                     79                     80                     81
                      A                      A                      A
 Frequencies --   3018.8298              3036.1411              3038.1585
 Red. masses --      1.0363                 1.0337                 1.1056
 Frc consts  --      5.5642                 5.6144                 6.0125
 IR Inten    --     68.2629                48.4994                46.6299

                     82                     83                     84
                      A                      A                      A
 Frequencies --   3051.1451              3054.8285              3071.0348
 Red. masses --      1.0357                 1.0325                 1.0853
 Frc consts  --      5.6808                 5.6768                 6.0306
 IR Inten    --     38.4749                54.5261                18.3674

                     85                     86                     87
                      A                      A                      A
 Frequencies --   3072.5344              3097.3582              3099.7257
 Red. masses --      1.1067                 1.0995                 1.0927
 Frc consts  --      6.1554                 6.2145                 6.1859
 IR Inten    --     57.6193                26.0280                33.4581

                     88                     89                     90
                      A                      A                      A
 Frequencies --   3118.9474              3121.6754              3127.8589
 Red. masses --      1.0898                 1.1017                 1.1065
 Frc consts  --      6.2464                 6.3253                 6.3783
 IR Inten    --     17.6786                46.4071                22.3114

                     91                     92                     93
                      A                      A                      A
 Frequencies --   3157.8122              3167.4018              3169.7902
 Red. masses --      1.0995                 1.1040                 1.1012
 Frc consts  --      6.4595                 6.5257                 6.5191
 IR Inten    --     29.4575                22.8551                21.6858

                     94                     95                     96
                      A                      A                      A
 Frequencies --   3176.1867              3183.7922              3199.8947
 Red. masses --      1.0858                 1.1032                 1.0951
 Frc consts  --      6.4536                 6.5885                 6.6067
 IR Inten    --      0.9858                10.6099                 1.3825

 - Thermochemistry -
 -------------------
 Temperature   298.150 Kelvin.  Pressure   1.00000 Atm.
 Atom     1 has atomic number  6 and mass  12.00000

 Molecular mass:   219.12325 amu.
 Principal axes and moments of inertia in atomic units:
                           1         2         3
     Eigenvalues --  2600.845074308.766804767.63778
           X            0.99991  -0.01328  -0.00302
           Y            0.01340   0.99897   0.04330
           Z            0.00244  -0.04333   0.99906
 This molecule is an asymmetric top.
 Rotational symmetry number  1.
 Warning -- assumption of classical behavior for rotation
           may cause significant error
 Rotational temperatures (Kelvin)      0.03330     0.02010     0.01817
 Rotational constants (GHZ):           0.69391     0.41885     0.37854
 Zero-point vibrational energy     773830.2 (Joules/Mol)
                                  184.94986 (Kcal/Mol)
 Warning -- explicit consideration of  27 degrees of freedom as
           vibrations may cause significant error
 Vibrational temperatures:     48.40    74.94    95.82   117.89   125.94
          (Kelvin)            149.26   152.33   185.18   223.22   245.27
                              262.82   290.43   324.04   348.27   366.94
                              380.12   415.04   471.84   490.15   506.97
                              586.41   624.61   687.37   731.95   746.69
                              832.66   884.50  1034.84  1232.64  1260.52
                             1326.37  1343.64  1377.70  1397.15  1436.54
                             1470.58  1503.78  1533.75  1589.51  1612.70
                             1643.87  1647.03  1667.00  1676.94  1701.60
                             1703.04  1710.77  1715.31  1752.78  1754.95
                             1768.36  1776.94  1822.60  1847.10  1867.78
                             1927.10  1940.27  1967.18  1981.71  2031.55
                             2037.83  2056.36  2089.95  2154.07  2156.59
                             2157.63  2166.38  2173.45  2181.38  2182.39
                             2183.92  2188.61  2191.45  2196.50  2203.22
                             2219.97  2371.00  4318.98  4343.42  4368.33
                             4371.23  4389.92  4395.22  4418.53  4420.69
                             4456.41  4459.81  4487.47  4491.39  4500.29
                             4543.39  4557.18  4560.62  4569.82  4580.77
                             4603.93

 Zero-point correction=                           0.294736 (Hartree/Particle)
 Thermal correction to Energy=                    0.312170
 Thermal correction to Enthalpy=                  0.313114
 Thermal correction to Gibbs Free Energy=         0.249001
 Sum of electronic and zero-point Energies=           -768.029004
 Sum of electronic and thermal Energies=              -768.011571
 Sum of electronic and thermal Enthalpies=            -768.010626
 Sum of electronic and thermal Free Energies=         -768.074740

                     E (Thermal)             CV                S
                      KCal/Mol        Cal/Mol-Kelvin    Cal/Mol-Kelvin
 Total                  195.890             61.755            134.937
 Electronic               0.000              0.000              0.000
 Translational            0.889              2.981             42.056
 Rotational               0.889              2.981             32.346
 Vibrational            194.112             55.793             60.534
 Vibration     1          0.594              1.983              5.602
 Vibration     2          0.596              1.977              4.737
 Vibration     3          0.598              1.970              4.251
 Vibration     4          0.600              1.962              3.844
 Vibration     5          0.601              1.958              3.714
 Vibration     6          0.605              1.946              3.383
 Vibration     7          0.605              1.945              3.343
 Vibration     8          0.611              1.925              2.965
 Vibration     9          0.620              1.897              2.608
 Vibration    10          0.626              1.879              2.430
 Vibration    11          0.630              1.863              2.301
 Vibration    12          0.639              1.837              2.116
 Vibration    13          0.650              1.803              1.917
 Vibration    14          0.658              1.776              1.788
 Vibration    15          0.665              1.754              1.696
 Vibration    16          0.671              1.739              1.634
 Vibration    17          0.685              1.695              1.483
 Vibration    18          0.711              1.620              1.270
 Vibration    19          0.720              1.594              1.209
 Vibration    20          0.729              1.570              1.156
 Vibration    21          0.772              1.454              0.935
 Vibration    22          0.795              1.396              0.845
 Vibration    23          0.834              1.299              0.716
 Vibration    24          0.864              1.231              0.637
 Vibration    25          0.874              1.208              0.612
 Vibration    26          0.935              1.077              0.488
 Vibration    27          0.974              1.001              0.425

                           ! Non-Optimized Parameters !
 Normal termination of Gaussian 16 at Fri May 24 08:57:04 2019.
