 Gaussian 16, Revision A.03,
 Gaussian 16:  ES64L-G16RevA.03 25-Dec-2016

 -------------------------------------------------------------------
 #p b3lyp 6-31g* opt freq=noraman scrf=(pcm,solvent=tetrahydrofuran)
 -------------------------------------------------------------------

 -----
 title
 -----
 Symbolic Z-matrix:
 Charge =  1 Multiplicity = 1

 SCF Done:  E(RB3LYP) =  -768.323510594     A.U. after   14 cycles
 Optimization completed.
    -- Stationary point found.
 Normal termination of Gaussian 16 at Fri May 24 08:33:35 2019.

 --------------------------------------------------------------------
 #P Geom=AllCheck Guess=TCheck SCRF=Check GenChk RB3LYP/6-31G(d) Freq
 --------------------------------------------------------------------

 Structure from the checkpoint file:  "/scratch/Gau-7178.chk"
 -----
 title
 -----
 Charge =  1 Multiplicity = 1

                         Standard orientation:
 ---------------------------------------------------------------------
 Center     Atomic      Atomic             Coordinates (Angstroms)
 Number     Number       Type             X           Y           Z
 ---------------------------------------------------------------------
      1          6           0       -1.190878    0.307024   -0.352768
      2          6           0       -1.483098   -0.990851    0.453601
      3          6           0       -0.374337   -1.970103    0.270594
      4          6           0        1.304871   -0.245953   -0.146945
      5          6           0        0.210355    0.820844    0.049772
      6          1           0       -0.567667   -3.042086    0.346631
      7          1           0       -1.417822   -0.739111    1.528927
      8          1           0       -1.157770    0.073190   -1.421854
      9          1           0        1.606347   -0.263904   -1.195317
     10          1           0        0.200763    1.140427    1.102555
     11          8           0        0.822704   -1.665526    0.051573
     12          8           0       -2.733715   -1.590218    0.293184
     13          8           0       -2.209529    1.265529   -0.227941
     14          8           0        0.644414    1.871728   -0.784143
     15          6           0        2.502564   -0.086728    0.789202
     16          1           0        2.181420   -0.288945    1.817105
     17          1           0        2.810124    0.967460    0.727112
     18          8           0        3.553543   -0.968772    0.494298
     19          6           0       -3.180666   -1.777786   -1.060463
     20          1           0       -2.454371   -2.349630   -1.652506
     21          1           0       -4.105103   -2.350421   -0.983088
     22          1           0       -3.383704   -0.817505   -1.542951
     23          6           0       -2.687351    1.572883    1.086478
     24          1           0       -1.888069    1.908957    1.757442
     25          1           0       -3.398801    2.389050    0.953530
     26          1           0       -3.208630    0.715847    1.527948
     27          6           0        0.333773    3.194582   -0.331420
     28          1           0        0.709459    3.358123    0.687150
     29          1           0        0.846071    3.872518   -1.016268
     30          1           0       -0.742863    3.382999   -0.365136
     31          6           0        4.444962   -0.502639   -0.517128
     32          1           0        3.944518   -0.376246   -1.486876
     33          1           0        4.903610    0.452042   -0.226919
     34          1           0        5.221992   -1.262339   -0.618783
 ---------------------------------------------------------------------

 SCF Done:  E(RB3LYP) =  -768.323510594     A.U. after    1 cycles

 The electronic state is 1-A.
 Alpha  occ. eigenvalues --  -19.33160 -19.21014 -19.19881 -19.19555 -19.18476
 Alpha  occ. eigenvalues --  -10.39861 -10.32216 -10.32155 -10.30060 -10.29927
 Alpha  occ. eigenvalues --  -10.28071 -10.26054 -10.25577 -10.25089 -10.24810
 Alpha  occ. eigenvalues --   -1.21840  -1.09971  -1.08365  -1.06862  -1.06663
 Alpha  occ. eigenvalues --   -0.87350  -0.86084  -0.77869  -0.75159  -0.74653
 Alpha  occ. eigenvalues --   -0.71760  -0.69705  -0.68065  -0.65183  -0.62746
 Alpha  occ. eigenvalues --   -0.60665  -0.58836  -0.55790  -0.54933  -0.54301
 Alpha  occ. eigenvalues --   -0.52785  -0.51715  -0.50963  -0.50805  -0.49427
 Alpha  occ. eigenvalues --   -0.48780  -0.47910  -0.46580  -0.45688  -0.45445
 Alpha  occ. eigenvalues --   -0.44296  -0.43538  -0.42489  -0.42132  -0.40763
 Alpha  occ. eigenvalues --   -0.40187  -0.37303  -0.36200  -0.35245  -0.34949
 Alpha  occ. eigenvalues --   -0.32768  -0.31523  -0.29665  -0.27933
 Alpha virt. eigenvalues --   -0.15367  -0.00107   0.04399   0.04673   0.06694
 Alpha virt. eigenvalues --    0.06896   0.07299   0.08327   0.08613   0.09851
 Alpha virt. eigenvalues --    0.11193   0.11378   0.12224   0.12604   0.13200

 Mulliken charges:
               1
     1  C    0.118231
     2  C    0.013777
     3  C    0.286903
     4  C    0.060168
     5  C    0.077770
     6  H    0.282490
     7  H    0.252407
     8  H    0.193817
     9  H    0.242879
    10  H    0.173767
    11  O   -0.297021
    12  O   -0.470152
    13  O   -0.474433
    14  O   -0.485557
    15  C   -0.047319
    16  H    0.188522
    17  H    0.187644
    18  O   -0.466616
    19  C   -0.243489
    20  H    0.164039
    21  H    0.198584
    22  H    0.187547
    23  C   -0.248946
    24  H    0.163722
    25  H    0.194589
    26  H    0.177786
    27  C   -0.227587
    28  H    0.161173
    29  H    0.184290
    30  H    0.176758
    31  C   -0.225589
    32  H    0.155049
    33  H    0.161915
    34  H    0.182883
 Sum of Mulliken charges =   1.00000

 Dipole moment (field-independent basis, Debye):
    X=             -0.6622    Y=             -2.0211    Z=              1.0691  Tot=              2.3804
 Quadrupole moment (field-independent basis, Debye-Ang):
   XX=            -71.1796   YY=            -68.6609   ZZ=            -81.5897
   XY=              6.9532   XZ=             -2.8999   YZ=              6.9011

  Exact polarizability: 167.118   1.967 151.001  -4.963   2.707 116.302
 Approx polarizability: 178.373  -1.767 169.665  -7.281  -1.162 145.525

                      1                      2                      3
                      A                      A                      A
 Frequencies --     41.3749                55.4501                65.7065
 Red. masses --      4.0855                 3.4020                 2.9739
 Frc consts  --      0.0041                 0.0062                 0.0076
 IR Inten    --      1.9154                 1.9930                 1.6029

                      4                      5                      6
                      A                      A                      A
 Frequencies --     85.4905                87.7180               106.7710
 Red. masses --      2.9371                 2.7409                 2.3334
 Frc consts  --      0.0126                 0.0124                 0.0157
 IR Inten    --      2.8610                 0.4565                 1.9777

                      7                      8                      9
                      A                      A                      A
 Frequencies --    111.8379               141.1474               173.1692
 Red. masses --      2.3436                 1.6158                 1.7456
 Frc consts  --      0.0173                 0.0190                 0.0308
 IR Inten    --      8.8112                 3.1189                 7.9020

                     10                     11                     12
                      A                      A                      A
 Frequencies --    184.1915               194.9783               209.7234
 Red. masses --      1.3979                 1.7842                 1.6334
 Frc consts  --      0.0279                 0.0400                 0.0423
 IR Inten    --      2.2913                13.7721                 2.1386

                     13                     14                     15
                      A                      A                      A
 Frequencies --    229.9185               233.7328               254.5332
 Red. masses --      3.1959                 1.8833                 2.7870
 Frc consts  --      0.0995                 0.0606                 0.1064
 IR Inten    --      4.4490                 7.1389                 2.3308

                     16                     17                     18
                      A                      A                      A
 Frequencies --    265.7728               305.2619               311.8586
 Red. masses --      2.6061                 4.3878                 3.8942
 Frc consts  --      0.1085                 0.2409                 0.2231
 IR Inten    --      8.9194                 1.8884                 0.8788

                     19                     20                     21
                      A                      A                      A
 Frequencies --    354.3931               375.3737               413.8198
 Red. masses --      3.9564                 4.9875                 4.1990
 Frc consts  --      0.2928                 0.4141                 0.4237
 IR Inten    --      6.0204                 8.7482                 4.4587

                     22                     23                     24
                      A                      A                      A
 Frequencies --    442.7212               477.2644               505.2736
 Red. masses --      2.4862                 3.9066                 3.4094
 Frc consts  --      0.2871                 0.5243                 0.5128
 IR Inten    --      9.6790                14.0226                11.3814

                     25                     26                     27
                      A                      A                      A
 Frequencies --    555.4107               581.9029               619.0928
 Red. masses --      4.2647                 3.2805                 3.6480
 Frc consts  --      0.7751                 0.6545                 0.8238
 IR Inten    --     17.9819                 1.8285                52.7852

                     28                     29                     30
                      A                      A                      A
 Frequencies --    709.7208               726.3745               832.7271
 Red. masses --      3.8766                 4.0434                 2.2847
 Frc consts  --      1.1505                 1.2570                 0.9334
 IR Inten    --     52.9617                78.8238                10.1032

                     31                     32                     33
                      A                      A                      A
 Frequencies --    923.1835               937.6362               948.1134
 Red. masses --      4.8573                 3.2736                 3.4857
 Frc consts  --      2.4391                 1.6957                 1.8461
 IR Inten    --     66.7854                14.8200                18.0383

                     34                     35                     36
                      A                      A                      A
 Frequencies --    970.9632               999.4615              1055.9685
 Red. masses --      3.9205                 4.1544                 3.0981
 Frc consts  --      2.1777                 2.4450                 2.0354
 IR Inten    --     17.7049                47.8264                29.8126

                     37                     38                     39
                      A                      A                      A
 Frequencies --   1067.5228              1089.1360              1097.1453
 Red. masses --      3.2214                 2.3597                 3.3382
 Frc consts  --      2.1630                 1.6492                 2.3675
 IR Inten    --     82.5113                13.3061                16.5720

                     40                     41                     42
                      A                      A                      A
 Frequencies --   1125.4893              1141.2698              1158.0867
 Red. masses --      2.6444                 3.6675                 3.8889
 Frc consts  --      1.9736                 2.8145                 3.0730
 IR Inten    --     37.9191               269.6355               202.1791

                     43                     44                     45
                      A                      A                      A
 Frequencies --   1162.7513              1166.4781              1177.0316
 Red. masses --      2.3723                 1.8501                 1.2671
 Frc consts  --      1.8897                 1.4832                 1.0342
 IR Inten    --     37.7455                52.3995                 1.7940

                     46                     47                     48
                      A                      A                      A
 Frequencies --   1182.6787              1188.0327              1188.7534
 Red. masses --      1.5375                 1.3082                 1.8424
 Frc consts  --      1.2670                 1.0879                 1.5340
 IR Inten    --     49.5113                 0.2324                54.3003

                     49                     50                     51
                      A                      A                      A
 Frequencies --   1225.0402              1227.5976              1230.0619
 Red. masses --      1.6297                 1.7308                 1.7002
 Frc consts  --      1.4410                 1.5368                 1.5157
 IR Inten    --     53.1686                36.8508                89.7523

                     52                     53                     54
                      A                      A                      A
 Frequencies --   1234.9461              1257.4058              1285.2019
 Red. masses --      1.7809                 1.4908                 1.4217
 Frc consts  --      1.6003                 1.3887                 1.3835
 IR Inten    --     66.3047                15.3829                42.0000

                     55                     56                     57
                      A                      A                      A
 Frequencies --   1322.9831              1333.4802              1342.0894
 Red. masses --      1.2505                 1.2431                 1.1922
 Frc consts  --      1.2896                 1.3024                 1.2652
 IR Inten    --     13.8481                28.5911                34.2238

                     58                     59                     60
                      A                      A                      A
 Frequencies --   1356.7280              1405.5376              1409.3628
 Red. masses --      1.2110                 1.3268                 1.3671
 Frc consts  --      1.3134                 1.5443                 1.5999
 IR Inten    --      8.3809                17.3620                 5.9802

                     61                     62                     63
                      A                      A                      A
 Frequencies --   1423.1107              1428.5405              1462.8065
 Red. masses --      1.2123                 1.2828                 1.1738
 Frc consts  --      1.4466                 1.5423                 1.4798
 IR Inten    --      7.7302                39.3128                30.7470

                     64                     65                     66
                      A                      A                      A
 Frequencies --   1490.7415              1492.4171              1496.0535
 Red. masses --      1.0957                 1.1409                 1.1564
 Frc consts  --      1.4346                 1.4973                 1.5250
 IR Inten    --      1.8820                 0.8161                 0.9829

                     67                     68                     69
                      A                      A                      A
 Frequencies --   1501.7063              1507.5001              1510.8767
 Red. masses --      1.1496                 1.0956                 1.0560
 Frc consts  --      1.5275                 1.4670                 1.4203
 IR Inten    --      0.9824                10.6260                11.1821

                     70                     71                     72
                      A                      A                      A
 Frequencies --   1514.5214              1518.1205              1518.4995
 Red. masses --      1.0714                 1.0491                 1.0547
 Frc consts  --      1.4479                 1.4245                 1.4329
 IR Inten    --      3.9947                 6.1858                 3.4525

                     73                     74                     75
                      A                      A                      A
 Frequencies --   1527.6754              1528.8510              1530.4017
 Red. masses --      1.0505                 1.0486                 1.0777
 Frc consts  --      1.4444                 1.4440                 1.4872
 IR Inten    --      7.0428                31.4853                 7.1457

                     76                     77                     78
                      A                      A                      A
 Frequencies --   1533.8549              1652.2263              2971.6245
 Red. masses --      1.0486                 6.9682                 1.0784
 Frc consts  --      1.4535                11.2075                 5.6106
 IR Inten    --     16.2818               231.2939                28.3548

                     79                     80                     81
                      A                      A                      A
 Frequencies --   3018.8476              3021.9850              3038.8187
 Red. masses --      1.0805                 1.0367                 1.0639
 Frc consts  --      5.8018                 5.5779                 5.7885
 IR Inten    --      8.3949                57.3114                34.9854

                     82                     83                     84
                      A                      A                      A
 Frequencies --   3040.4337              3043.8823              3045.7437
 Red. masses --      1.0401                 1.0395                 1.0373
 Frc consts  --      5.6651                 5.6744                 5.6695
 IR Inten    --     30.0393                42.9105                58.2711

                     85                     86                     87
                      A                      A                      A
 Frequencies --   3079.3972              3094.4517              3111.0336
 Red. masses --      1.1062                 1.0863                 1.1068
 Frc consts  --      6.1802                 6.1287                 6.3112
 IR Inten    --     67.8749                12.4398                45.3787

                     88                     89                     90
                      A                      A                      A
 Frequencies --   3121.7045              3124.6610              3127.4391
 Red. masses --      1.0954                 1.0972                 1.0989
 Frc consts  --      6.2893                 6.3119                 6.3327
 IR Inten    --     13.4869                35.9954                32.4022

                     91                     92                     93
                      A                      A                      A
 Frequencies --   3154.1472              3160.9197              3168.7332
 Red. masses --      1.0879                 1.0997                 1.1050
 Frc consts  --      6.3767                 6.4738                 6.5369
 IR Inten    --      1.9242                27.3679                21.9657

                     94                     95                     96
                      A                      A                      A
 Frequencies --   3170.0087              3181.4515              3198.6182
 Red. masses --      1.1009                 1.1037                 1.0936
 Frc consts  --      6.5181                 6.5819                 6.5924
 IR Inten    --     17.1235                14.9467                 1.6532

 - Thermochemistry -
 -------------------
 Temperature   298.150 Kelvin.  Pressure   1.00000 Atm.
 Atom     1 has atomic number  6 and mass  12.00000

 Molecular mass:   219.12325 amu.
 Principal axes and moments of inertia in atomic units:
                           1         2         3
     Eigenvalues --  2161.742594433.937955965.05914
           X            0.99994   0.00960  -0.00437
           Y           -0.00947   0.99957   0.02772
           Z            0.00464  -0.02768   0.99961
 This molecule is an asymmetric top.
 Rotational symmetry number  1.
 Warning -- assumption of classical behavior for rotation
           may cause significant error
 Rotational temperatures (Kelvin)      0.04007     0.01953     0.01452
 Rotational constants (GHZ):           0.83485     0.40703     0.30255
 Zero-point vibrational energy     773832.3 (Joules/Mol)
                                  184.95035 (Kcal/Mol)
 Warning -- explicit consideration of  27 degrees of freedom as
           vibrations may cause significant error
 Vibrational temperatures:     59.53    79.78    94.54   123.00   126.21
          (Kelvin)            153.62   160.91   203.08   249.15   265.01
                              280.53   301.75   330.80   336.29   366.22
                              382.39   439.20   448.70   509.89   540.08
                              595.39   636.98   686.68   726.98   799.11
                              837.23   890.74  1021.13  1045.09  1198.11
                             1328.26  1349.05  1364.12  1397.00  1438.00
                             1519.30  1535.93  1567.02  1578.55  1619.33
                             1642.03  1666.23  1672.94  1678.30  1693.49
                             1701.61  1709.31  1710.35  1762.56  1766.24
                             1769.78  1776.81  1809.13  1849.12  1903.48
                             1918.58  1930.97  1952.03  2022.26  2027.76
                             2047.54  2055.35  2104.65  2144.84  2147.26
                             2152.49  2160.62  2168.96  2173.81  2179.06
                             2184.24  2184.78  2197.98  2199.68  2201.91
                             2206.88  2377.19  4275.50  4343.45  4347.96
                             4372.18  4374.51  4379.47  4382.15  4430.57
                             4452.23  4476.08  4491.44  4495.69  4499.69
                             4538.11  4547.86  4559.10  4560.94  4577.40
                             4602.10

 Zero-point correction=                           0.294737 (Hartree/Particle)
 Thermal correction to Energy=                    0.311983
 Thermal correction to Enthalpy=                  0.312927
 Thermal correction to Gibbs Free Energy=         0.249562
 Sum of electronic and zero-point Energies=           -768.028773
 Sum of electronic and thermal Energies=              -768.011527
 Sum of electronic and thermal Enthalpies=            -768.010583
 Sum of electronic and thermal Free Energies=         -768.073949

                     E (Thermal)             CV                S
                      KCal/Mol        Cal/Mol-Kelvin    Cal/Mol-Kelvin
 Total                  195.772             61.685            133.364
 Electronic               0.000              0.000              0.000
 Translational            0.889              2.981             42.056
 Rotational               0.889              2.981             32.414
 Vibrational            193.995             55.723             58.894
 Vibration     1          0.594              1.981              5.192
 Vibration     2          0.596              1.975              4.613
 Vibration     3          0.597              1.971              4.278
 Vibration     4          0.601              1.959              3.761
 Vibration     5          0.601              1.958              3.710
 Vibration     6          0.606              1.944              3.327
 Vibration     7          0.607              1.940              3.237
 Vibration     8          0.615              1.912              2.788
 Vibration     9          0.627              1.875              2.401
 Vibration    10          0.631              1.861              2.286
 Vibration    11          0.636              1.847              2.180
 Vibration    12          0.642              1.826              2.046
 Vibration    13          0.652              1.795              1.880
 Vibration    14          0.654              1.789              1.850
 Vibration    15          0.665              1.755              1.699
 Vibration    16          0.672              1.736              1.624
 Vibration    17          0.696              1.664              1.388
 Vibration    18          0.700              1.651              1.352
 Vibration    19          0.730              1.566              1.147
 Vibration    20          0.746              1.523              1.058
 Vibration    21          0.777              1.440              0.913
 Vibration    22          0.802              1.377              0.818
 Vibration    23          0.834              1.300              0.717
 Vibration    24          0.861              1.238              0.645
 Vibration    25          0.911              1.128              0.533
 Vibration    26          0.939              1.070              0.482
 Vibration    27          0.979              0.992              0.418

                           ! Non-Optimized Parameters !
 Normal termination of Gaussian 16 at Fri May 24 08:52:17 2019.
