 Gaussian 16, Revision A.03,
 Gaussian 16:  ES64L-G16RevA.03 25-Dec-2016

 ----------------------------------------------------------------------
 #p b3lyp 6-31g* opt=(maxstep=1,calcfc) freq=noraman scrf=(pcm,solvent=
 tetrahydrofuran)
 ----------------------------------------------------------------------

 -----
 title
 -----
 Symbolic Z-matrix:
 Charge =  1 Multiplicity = 1

 SCF Done:  E(RB3LYP) =  -768.315074265     A.U. after   13 cycles
 SCF Done:  E(RB3LYP) =  -768.315073582     A.U. after    6 cycles
 Optimization completed.
    -- Stationary point found.
 Normal termination of Gaussian 16 at Sat May 25 18:43:00 2019.

 --------------------------------------------------------------------
 #P Geom=AllCheck Guess=TCheck SCRF=Check GenChk RB3LYP/6-31G(d) Freq
 --------------------------------------------------------------------

 Structure from the checkpoint file:  "/scratch/Gau-193718.chk"
 -----
 title
 -----
 Charge =  1 Multiplicity = 1

                         Standard orientation:
 ---------------------------------------------------------------------
 Center     Atomic      Atomic             Coordinates (Angstroms)
 Number     Number       Type             X           Y           Z
 ---------------------------------------------------------------------
      1          6           0       -1.071338    0.304607    0.934595
      2          6           0       -1.633268   -1.072433    0.527903
      3          6           0       -0.698208   -1.926770   -0.261641
      4          6           0        0.553427   -0.012379   -1.150207
      5          6           0        0.020323    0.893633   -0.020070
      6          1           0       -0.830615   -3.007856   -0.313270
      7          1           0       -1.940758   -1.606222    1.428893
      8          1           0       -1.917698    0.996740    0.908478
      9          1           0        0.084475    0.269479   -2.093151
     10          1           0        0.867301    1.181126    0.613114
     11          8           0        0.187176   -1.478320   -1.030773
     12          8           0       -2.788991   -1.095544   -0.314890
     13          8           0       -0.658461    0.300963    2.287723
     14          8           0       -0.462320    2.026689   -0.725249
     15          6           0        2.061095   -0.013408   -1.300619
     16          1           0        2.357478    1.016790   -1.554664
     17          1           0        2.352877   -0.666323   -2.136043
     18          8           0        2.626604   -0.441994   -0.084727
     19          6           0       -2.821084   -0.278513   -1.503260
     20          1           0       -2.239763   -0.728987   -2.315761
     21          1           0       -3.871459   -0.260411   -1.795946
     22          1           0       -2.476035    0.740830   -1.310318
     23          6           0        0.389948   -0.604236    2.643483
     24          1           0        1.289745   -0.460329    2.034624
     25          1           0        0.625971   -0.392900    3.687626
     26          1           0        0.067526   -1.653433    2.572311
     27          6           0       -0.442099    3.239929    0.031892
     28          1           0       -0.808757    4.020634   -0.636109
     29          1           0       -1.093541    3.183713    0.912740
     30          1           0        0.579070    3.478913    0.354921
     31          6           0        4.051775   -0.421030   -0.095578
     32          1           0        4.450184   -1.092025   -0.868416
     33          1           0        4.430757    0.594749   -0.271914
     34          1           0        4.377750   -0.765232    0.887231
 ---------------------------------------------------------------------

 SCF Done:  E(RB3LYP) =  -768.315073582     A.U. after    1 cycles

 The electronic state is 1-A.
 Alpha  occ. eigenvalues --  -19.33120 -19.22903 -19.19740 -19.19232 -19.19106
 Alpha  occ. eigenvalues --  -10.39567 -10.32415 -10.31703 -10.29658 -10.29480
 Alpha  occ. eigenvalues --  -10.28137 -10.26758 -10.25417 -10.25324 -10.25033
 Alpha  occ. eigenvalues --   -1.21695  -1.09932  -1.08238  -1.07280  -1.06880
 Alpha  occ. eigenvalues --   -0.87590  -0.84938  -0.78064  -0.75542  -0.74407
 Alpha  occ. eigenvalues --   -0.71502  -0.69588  -0.68399  -0.66212  -0.61280
 Alpha  occ. eigenvalues --   -0.60186  -0.58978  -0.57728  -0.54457  -0.53941
 Alpha  occ. eigenvalues --   -0.52368  -0.51852  -0.51033  -0.50445  -0.49378
 Alpha  occ. eigenvalues --   -0.48730  -0.48065  -0.46819  -0.46269  -0.45506
 Alpha  occ. eigenvalues --   -0.44338  -0.43828  -0.42851  -0.42003  -0.40532
 Alpha  occ. eigenvalues --   -0.40070  -0.37751  -0.36619  -0.36347  -0.35108
 Alpha  occ. eigenvalues --   -0.33221  -0.31166  -0.29501  -0.28452
 Alpha virt. eigenvalues --   -0.15312  -0.00127   0.02649   0.04920   0.06307
 Alpha virt. eigenvalues --    0.06684   0.07533   0.08506   0.09048   0.10228
 Alpha virt. eigenvalues --    0.10617   0.11192   0.11979   0.12514   0.13039

 Mulliken charges:
               1
     1  C    0.086014
     2  C    0.045398
     3  C    0.270843
     4  C    0.047761
     5  C    0.086480
     6  H    0.281721
     7  H    0.236038
     8  H    0.212256
     9  H    0.247654
    10  H    0.202700
    11  O   -0.302526
    12  O   -0.455999
    13  O   -0.478134
    14  O   -0.491945
    15  C   -0.036883
    16  H    0.185239
    17  H    0.181364
    18  O   -0.478488
    19  C   -0.268874
    20  H    0.176035
    21  H    0.211543
    22  H    0.192726
    23  C   -0.265679
    24  H    0.181649
    25  H    0.194821
    26  H    0.153742
    27  C   -0.228376
    28  H    0.187652
    29  H    0.168263
    30  H    0.167018
    31  C   -0.213225
    32  H    0.160893
    33  H    0.161007
    34  H    0.181314
 Sum of Mulliken charges =   1.00000

 Dipole moment (field-independent basis, Debye):
    X=              0.9617    Y=             -2.6296    Z=             -2.4236  Tot=              3.7032
 Quadrupole moment (field-independent basis, Debye-Ang):
   XX=            -68.2071   YY=            -68.9153   ZZ=            -78.9523
   XY=              1.8149   XZ=              2.1883   YZ=             -1.2065

  Exact polarizability: 155.351   0.101 139.416   4.045  -5.480 136.409
 Approx polarizability: 175.634  -1.568 158.614   0.133  -6.517 159.802

                      1                      2                      3
                      A                      A                      A
 Frequencies --     27.6218                35.2177                53.1025
 Red. masses --      3.8187                 3.5890                 3.0401
 Frc consts  --      0.0017                 0.0026                 0.0051
 IR Inten    --      1.2819                 0.5439                 0.6746

                      4                      5                      6
                      A                      A                      A
 Frequencies --     86.7257                87.4526               111.8687
 Red. masses --      2.6981                 3.0562                 2.3023
 Frc consts  --      0.0120                 0.0138                 0.0170
 IR Inten    --      4.2986                 2.4582                 6.6251

                      7                      8                      9
                      A                      A                      A
 Frequencies --    124.9314               139.2924               150.1869
 Red. masses --      1.9239                 2.7838                 3.3004
 Frc consts  --      0.0177                 0.0318                 0.0439
 IR Inten    --      0.9464                 5.2905                10.9560

                     10                     11                     12
                      A                      A                      A
 Frequencies --    168.3653               180.8382               182.1672
 Red. masses --      1.3957                 2.4592                 1.4759
 Frc consts  --      0.0233                 0.0474                 0.0289
 IR Inten    --      5.4212                 8.0064                 5.6327

                     13                     14                     15
                      A                      A                      A
 Frequencies --    208.1143               217.7917               251.6026
 Red. masses --      1.4508                 1.4193                 3.0255
 Frc consts  --      0.0370                 0.0397                 0.1128
 IR Inten    --     11.5824                 7.2555                12.4680

                     16                     17                     18
                      A                      A                      A
 Frequencies --    264.7651               290.1055               319.6466
 Red. masses --      3.0893                 2.5164                 3.6446
 Frc consts  --      0.1276                 0.1248                 0.2194
 IR Inten    --      0.4357                15.2531                 6.2610

                     19                     20                     21
                      A                      A                      A
 Frequencies --    346.5590               371.0360               405.6111
 Red. masses --      4.1381                 4.3110                 3.6363
 Frc consts  --      0.2928                 0.3497                 0.3525
 IR Inten    --      8.5620                13.2568                 4.1613

                     22                     23                     24
                      A                      A                      A
 Frequencies --    429.9007               464.6464               515.0898
 Red. masses --      3.8371                 3.9263                 5.4486
 Frc consts  --      0.4178                 0.4994                 0.8517
 IR Inten    --      9.0569                26.1246                 4.7549

                     25                     26                     27
                      A                      A                      A
 Frequencies --    566.0585               585.0064               649.8643
 Red. masses --      4.3586                 4.1550                 4.4476
 Frc consts  --      0.8228                 0.8378                 1.1067
 IR Inten    --     10.6579                34.9352                21.6048

                     28                     29                     30
                      A                      A                      A
 Frequencies --    752.4111               845.6564               882.4388
 Red. masses --      4.7583                 5.4095                 3.1380
 Frc consts  --      1.5871                 2.2793                 1.4397
 IR Inten    --     44.4097                51.2206                 8.9462

                     31                     32                     33
                      A                      A                      A
 Frequencies --    891.6373               905.6592               939.5431
 Red. masses --      4.5684                 2.7241                 2.9245
 Frc consts  --      2.1399                 1.3165                 1.5210
 IR Inten    --     20.4565                16.8937                 3.7850

                     34                     35                     36
                      A                      A                      A
 Frequencies --    950.5708              1001.5428              1023.2209
 Red. masses --      3.8432                 2.9097                 2.4326
 Frc consts  --      2.0461                 1.7197                 1.5006
 IR Inten    --     18.8804                31.2201                33.5818

                     37                     38                     39
                      A                      A                      A
 Frequencies --   1048.3934              1051.5681              1088.1009
 Red. masses --      2.3857                 2.7728                 6.3953
 Frc consts  --      1.5450                 1.8065                 4.4612
 IR Inten    --     37.6327                65.9762               192.5305

                     40                     41                     42
                      A                      A                      A
 Frequencies --   1115.6483              1128.4068              1142.4776
 Red. masses --      2.5843                 3.1846                 2.9505
 Frc consts  --      1.8952                 2.3891                 2.2690
 IR Inten    --     76.1753               226.9186                52.9093

                     43                     44                     45
                      A                      A                      A
 Frequencies --   1150.1363              1165.2784              1184.2891
 Red. masses --      5.0227                 2.5236                 1.2724
 Frc consts  --      3.9146                 2.0190                 1.0515
 IR Inten    --     29.0442               100.4242                 1.7251

                     46                     47                     48
                      A                      A                      A
 Frequencies --   1185.7983              1186.3638              1188.2324
 Red. masses --      1.2657                 1.2843                 1.2923
 Frc consts  --      1.0486                 1.0650                 1.0750
 IR Inten    --      3.5137                10.4281                 3.9027

                     49                     50                     51
                      A                      A                      A
 Frequencies --   1222.0304              1222.9535              1232.5662
 Red. masses --      1.3888                 1.5606                 1.5202
 Frc consts  --      1.2219                 1.3752                 1.3608
 IR Inten    --     15.3596                10.0759                18.2438

                     52                     53                     54
                      A                      A                      A
 Frequencies --   1234.2288              1269.0221              1283.2008
 Red. masses --      1.6881                 1.3139                 1.2794
 Frc consts  --      1.5151                 1.2467                 1.2412
 IR Inten    --     47.6934                14.3397                 9.8636

                     55                     56                     57
                      A                      A                      A
 Frequencies --   1309.6494              1344.4310              1367.3305
 Red. masses --      1.3307                 1.2587                 1.2863
 Frc consts  --      1.3447                 1.3405                 1.4169
 IR Inten    --     25.1846                38.8029                 2.0250

                     58                     59                     60
                      A                      A                      A
 Frequencies --   1373.2887              1386.5437              1412.3300
 Red. masses --      1.1952                 1.2821                 1.6190
 Frc consts  --      1.3280                 1.4522                 1.9027
 IR Inten    --      4.1672                14.7283                 2.7430

                     61                     62                     63
                      A                      A                      A
 Frequencies --   1417.8962              1430.7017              1435.6402
 Red. masses --      1.3849                 1.3022                 1.3920
 Frc consts  --      1.6405                 1.5705                 1.6903
 IR Inten    --     23.6876                19.8502                25.8054

                     64                     65                     66
                      A                      A                      A
 Frequencies --   1494.4271              1496.8016              1498.7835
 Red. masses --      1.1259                 1.1441                 1.1263
 Frc consts  --      1.4815                 1.5102                 1.4907
 IR Inten    --      2.2944                 3.2035                 4.8438

                     67                     68                     69
                      A                      A                      A
 Frequencies --   1505.9695              1507.5785              1511.9330
 Red. masses --      1.1196                 1.0472                 1.0586
 Frc consts  --      1.4960                 1.4023                 1.4258
 IR Inten    --      3.0509                 8.8084                11.7714

                     70                     71                     72
                      A                      A                      A
 Frequencies --   1518.7296              1519.8263              1524.5365
 Red. masses --      1.0474                 1.0593                 1.0501
 Frc consts  --      1.4234                 1.4416                 1.4380
 IR Inten    --      6.0494                15.2941                 7.4769

                     73                     74                     75
                      A                      A                      A
 Frequencies --   1526.6316              1532.4439              1537.5499
 Red. masses --      1.0583                 1.0647                 1.0601
 Frc consts  --      1.4532                 1.4731                 1.4766
 IR Inten    --     21.6399                20.8705                32.6414

                     76                     77                     78
                      A                      A                      A
 Frequencies --   1540.1656              1648.4210              3013.2306
 Red. masses --      1.0887                 6.2904                 1.0552
 Frc consts  --      1.5216                10.0709                 5.6447
 IR Inten    --     11.2208               235.0384                33.5791

                     79                     80                     81
                      A                      A                      A
 Frequencies --   3017.9443              3026.0668              3034.9744
 Red. masses --      1.0453                 1.0382                 1.0343
 Frc consts  --      5.6091                 5.6013                 5.6134
 IR Inten    --     55.1891                65.8727                50.7771

                     82                     83                     84
                      A                      A                      A
 Frequencies --   3054.9950              3057.5205              3070.5522
 Red. masses --      1.0359                 1.1038                 1.0847
 Frc consts  --      5.6962                 6.0798                 6.0256
 IR Inten    --     35.7737                45.8928                 6.9721

                     85                     86                     87
                      A                      A                      A
 Frequencies --   3082.5847              3097.2534              3100.1444
 Red. masses --      1.1072                 1.1071                 1.0927
 Frc consts  --      6.1988                 6.2576                 6.1874
 IR Inten    --     50.0862                48.2755                31.4870

                     88                     89                     90
                      A                      A                      A
 Frequencies --   3109.2445              3134.8037              3138.8405
 Red. masses --      1.0855                 1.0870                 1.1024
 Frc consts  --      6.1828                 6.2938                 6.3993
 IR Inten    --      6.6106                 1.0039                16.8358

                     91                     92                     93
                      A                      A                      A
 Frequencies --   3158.1532              3164.3645              3166.9673
 Red. masses --      1.0873                 1.1002                 1.1015
 Frc consts  --      6.3897                 6.4908                 6.5088
 IR Inten    --      1.4838                21.5178                17.9925

                     94                     95                     96
                      A                      A                      A
 Frequencies --   3169.8813              3182.0552              3211.6300
 Red. masses --      1.1013                 1.1052                 1.0941
 Frc consts  --      6.5197                 6.5931                 6.6492
 IR Inten    --     21.7444                 3.8842                 1.7478

 - Thermochemistry -
 -------------------
 Temperature   298.150 Kelvin.  Pressure   1.00000 Atm.
 Atom     1 has atomic number  6 and mass  12.00000

 Molecular mass:   219.12325 amu.
 Principal axes and moments of inertia in atomic units:
                           1         2         3
     Eigenvalues --  2545.957363869.437174093.39973
           X            0.99982  -0.01143   0.01543
           Y            0.01245   0.99763  -0.06767
           Z           -0.01462   0.06785   0.99759
 This molecule is an asymmetric top.
 Rotational symmetry number  1.
 Warning -- assumption of classical behavior for rotation
           may cause significant error
 Rotational temperatures (Kelvin)      0.03402     0.02238     0.02116
 Rotational constants (GHZ):           0.70887     0.46641     0.44089
 Zero-point vibrational energy     773731.2 (Joules/Mol)
                                  184.92620 (Kcal/Mol)
 Warning -- explicit consideration of  26 degrees of freedom as
           vibrations may cause significant error
 Vibrational temperatures:     39.74    50.67    76.40   124.78   125.82
          (Kelvin)            160.95   179.75   200.41   216.09   242.24
                              260.19   262.10   299.43   313.35   362.00
                              380.94   417.40   459.90   498.62   533.84
                              583.58   618.53   668.52   741.10   814.43
                              841.69   935.01  1082.55  1216.71  1269.63
                             1282.87  1303.04  1351.79  1367.66  1441.00
                             1472.19  1508.40  1512.97  1565.53  1605.17
                             1623.53  1643.77  1654.79  1676.58  1703.93
                             1706.10  1706.91  1709.60  1758.23  1759.56
                             1773.39  1775.78  1825.84  1846.24  1884.29
                             1934.34  1967.28  1975.86  1994.93  2032.03
                             2040.04  2058.46  2065.57  2150.15  2153.56
                             2156.42  2166.75  2169.07  2175.33  2185.11
                             2186.69  2193.47  2196.48  2204.85  2212.19
                             2215.95  2371.71  4335.37  4342.15  4353.84
                             4366.65  4395.46  4399.09  4417.84  4435.15
                             4456.26  4460.42  4473.51  4510.28  4516.09
                             4543.88  4552.81  4556.56  4560.75  4578.27
                             4620.82

 Zero-point correction=                           0.294699 (Hartree/Particle)
 Thermal correction to Energy=                    0.312193
 Thermal correction to Enthalpy=                  0.313137
 Thermal correction to Gibbs Free Energy=         0.248512
 Sum of electronic and zero-point Energies=           -768.020375
 Sum of electronic and thermal Energies=              -768.002881
 Sum of electronic and thermal Enthalpies=            -768.001937
 Sum of electronic and thermal Free Energies=         -768.066562

                     E (Thermal)             CV                S
                      KCal/Mol        Cal/Mol-Kelvin    Cal/Mol-Kelvin
 Total                  195.904             61.731            136.015
 Electronic               0.000              0.000              0.000
 Translational            0.889              2.981             42.056
 Rotational               0.889              2.981             32.067
 Vibrational            194.126             55.769             61.892
 Vibration     1          0.593              1.984              5.993
 Vibration     2          0.594              1.982              5.511
 Vibration     3          0.596              1.976              4.698
 Vibration     4          0.601              1.958              3.733
 Vibration     5          0.601              1.958              3.716
 Vibration     6          0.607              1.940              3.236
 Vibration     7          0.610              1.928              3.023
 Vibration     8          0.615              1.914              2.814
 Vibration     9          0.618              1.902              2.670
 Vibration    10          0.625              1.881              2.454
 Vibration    11          0.630              1.866              2.320
 Vibration    12          0.630              1.864              2.306
 Vibration    13          0.641              1.828              2.060
 Vibration    14          0.646              1.814              1.977
 Vibration    15          0.664              1.760              1.719
 Vibration    16          0.671              1.738              1.630
 Vibration    17          0.686              1.692              1.473
 Vibration    18          0.706              1.636              1.312
 Vibration    19          0.725              1.582              1.182
 Vibration    20          0.743              1.532              1.076
 Vibration    21          0.771              1.458              0.942
 Vibration    22          0.791              1.405              0.859
 Vibration    23          0.822              1.328              0.753
 Vibration    24          0.870              1.217              0.621
 Vibration    25          0.922              1.105              0.512
 Vibration    26          0.942              1.064              0.476

                           ! Non-Optimized Parameters !
 Normal termination of Gaussian 16 at Sat May 25 18:53:14 2019.
