 Gaussian 16, Revision A.03,
 Gaussian 16:  ES64L-G16RevA.03 25-Dec-2016

 -------------------------------------------------------------------
 #p b3lyp 6-31g* opt freq=noraman scrf=(pcm,solvent=tetrahydrofuran)
 -------------------------------------------------------------------

 -----
 title
 -----
 Symbolic Z-matrix:
 Charge =  1 Multiplicity = 1

 SCF Done:  E(RB3LYP) =  -768.326852352     A.U. after   13 cycles
 Optimization completed.
    -- Stationary point found.
 Normal termination of Gaussian 16 at Fri May 24 08:33:06 2019.

 --------------------------------------------------------------------
 #P Geom=AllCheck Guess=TCheck SCRF=Check GenChk RB3LYP/6-31G(d) Freq
 --------------------------------------------------------------------

 Structure from the checkpoint file:  "/scratch/Gau-32258.chk"
 -----
 title
 -----
 Charge =  1 Multiplicity = 1

                         Standard orientation:
 ---------------------------------------------------------------------
 Center     Atomic      Atomic             Coordinates (Angstroms)
 Number     Number       Type             X           Y           Z
 ---------------------------------------------------------------------
      1          6           0        0.700121    0.899125    0.090092
      2          6           0        1.512033    0.266551   -1.075281
      3          6           0        1.081211   -1.109340   -1.468740
      4          6           0       -0.990084   -0.996439   -0.238534
      5          6           0       -0.193338   -0.171622    0.760743
      6          1           0        1.729873   -1.709189   -2.109594
      7          1           0        1.210403    0.849058   -1.967655
      8          1           0        1.411549    1.270177    0.838785
      9          1           0       -1.395778   -1.877906    0.257816
     10          1           0       -0.923967    0.298212    1.428946
     11          8           0       -0.029991   -1.636036   -1.209191
     12          8           0        2.907177    0.360269   -1.034752
     13          8           0       -0.024336    1.971871   -0.477218
     14          8           0        0.645587   -1.086749    1.447084
     15          6           0       -2.077881   -0.264957   -1.049227
     16          1           0       -2.531151   -0.966658   -1.760943
     17          1           0       -1.642396    0.571883   -1.597129
     18          8           0       -3.024600    0.270558   -0.152540
     19          6           0        3.560814   -0.344761    0.031710
     20          1           0        3.280484   -1.405171    0.049013
     21          1           0        4.628042   -0.255651   -0.172316
     22          1           0        3.339914    0.100732    1.007177
     23          6           0       -0.506807    2.939478    0.458216
     24          1           0        0.307272    3.298951    1.100545
     25          1           0       -1.317216    2.540269    1.078889
     26          1           0       -0.892352    3.768574   -0.137082
     27          6           0        0.890641   -0.763648    2.819258
     28          1           0       -0.045183   -0.768821    3.391497
     29          1           0        1.556740   -1.538279    3.201921
     30          1           0        1.375767    0.214433    2.928448
     31          6           0       -4.097436   -0.612881    0.179960
     32          1           0       -4.763010   -0.052251    0.838691
     33          1           0       -4.646366   -0.916245   -0.720730
     34          1           0       -3.748973   -1.510442    0.707486
 ---------------------------------------------------------------------

 SCF Done:  E(RB3LYP) =  -768.326852352     A.U. after    1 cycles

 The electronic state is 1-A.
 Alpha  occ. eigenvalues --  -19.32958 -19.20836 -19.19900 -19.19532 -19.19043
 Alpha  occ. eigenvalues --  -10.39660 -10.31893 -10.31681 -10.29676 -10.29417
 Alpha  occ. eigenvalues --  -10.27904 -10.26079 -10.25707 -10.25231 -10.25037
 Alpha  occ. eigenvalues --   -1.21684  -1.09553  -1.08245  -1.07192  -1.06945
 Alpha  occ. eigenvalues --   -0.86990  -0.85417  -0.77353  -0.75287  -0.74601
 Alpha  occ. eigenvalues --   -0.71272  -0.69322  -0.68599  -0.66391  -0.61926
 Alpha  occ. eigenvalues --   -0.59121  -0.58734  -0.56704  -0.54282  -0.53910
 Alpha  occ. eigenvalues --   -0.52893  -0.51554  -0.50877  -0.50307  -0.49330
 Alpha  occ. eigenvalues --   -0.48608  -0.47459  -0.47139  -0.46543  -0.45866
 Alpha  occ. eigenvalues --   -0.43958  -0.43394  -0.42297  -0.42083  -0.41229
 Alpha  occ. eigenvalues --   -0.39773  -0.36814  -0.36562  -0.35948  -0.35091
 Alpha  occ. eigenvalues --   -0.32141  -0.31481  -0.29560  -0.28518
 Alpha virt. eigenvalues --   -0.15087   0.00432   0.03251   0.04590   0.06567
 Alpha virt. eigenvalues --    0.06962   0.08042   0.08558   0.09420   0.10266
 Alpha virt. eigenvalues --    0.11049   0.12107   0.12275   0.12622   0.12940

 Mulliken charges:
               1
     1  C    0.127385
     2  C    0.036091
     3  C    0.275137
     4  C    0.057259
     5  C    0.050959
     6  H    0.279637
     7  H    0.273148
     8  H    0.188641
     9  H    0.233297
    10  H    0.202753
    11  O   -0.307932
    12  O   -0.466681
    13  O   -0.493515
    14  O   -0.493402
    15  C   -0.044545
    16  H    0.180394
    17  H    0.194294
    18  O   -0.466137
    19  C   -0.239004
    20  H    0.165900
    21  H    0.197243
    22  H    0.174314
    23  C   -0.226253
    24  H    0.164522
    25  H    0.167617
    26  H    0.188410
    27  C   -0.224981
    28  H    0.171296
    29  H    0.188930
    30  H    0.163250
    31  C   -0.225699
    32  H    0.184555
    33  H    0.165475
    34  H    0.157643
 Sum of Mulliken charges =   1.00000

 Dipole moment (field-independent basis, Debye):
    X=              0.6906    Y=             -3.0261    Z=             -0.0773  Tot=              3.1049
 Quadrupole moment (field-independent basis, Debye-Ang):
   XX=            -65.3625   YY=            -78.4914   ZZ=            -71.1953
   XY=             -0.3278   XZ=              0.7000   YZ=              6.9850

  Exact polarizability: 166.304  -2.282 130.788  -4.450   1.895 131.903
 Approx polarizability: 177.969  -0.696 157.020  -7.548   1.654 153.283

                      1                      2                      3
                      A                      A                      A
 Frequencies --     36.6616                62.0512                67.3896
 Red. masses --      2.8366                 2.3890                 2.5955
 Frc consts  --      0.0022                 0.0054                 0.0069
 IR Inten    --      3.7460                 2.1901                 0.5242

                      4                      5                      6
                      A                      A                      A
 Frequencies --     75.3918                93.4707               102.3560
 Red. masses --      2.6959                 2.7428                 2.2824
 Frc consts  --      0.0090                 0.0141                 0.0141
 IR Inten    --      0.6440                11.9463                 0.5017

                      7                      8                      9
                      A                      A                      A
 Frequencies --    110.0954               150.7506               151.2519
 Red. masses --      2.6969                 1.5053                 2.9341
 Frc consts  --      0.0193                 0.0202                 0.0395
 IR Inten    --      1.7359                 3.0987                 5.9700

                     10                     11                     12
                      A                      A                      A
 Frequencies --    169.8779               177.5829               201.1537
 Red. masses --      1.4443                 1.7204                 2.4476
 Frc consts  --      0.0246                 0.0320                 0.0584
 IR Inten    --      0.0846                 0.5209                 9.7667

                     13                     14                     15
                      A                      A                      A
 Frequencies --    207.7028               224.7366               258.8098
 Red. masses --      1.3888                 2.2111                 3.2514
 Frc consts  --      0.0353                 0.0658                 0.1283
 IR Inten    --      0.3178                 4.2272                 8.0001

                     16                     17                     18
                      A                      A                      A
 Frequencies --    285.8126               299.2286               339.8511
 Red. masses --      3.9779                 5.0615                 3.5069
 Frc consts  --      0.1915                 0.2670                 0.2386
 IR Inten    --      5.3659                17.9560                12.2095

                     19                     20                     21
                      A                      A                      A
 Frequencies --    372.0685               395.0464               440.9798
 Red. masses --      4.3050                 3.4084                 3.9813
 Frc consts  --      0.3511                 0.3134                 0.4562
 IR Inten    --      7.8049                 0.5513                17.3816

                     22                     23                     24
                      A                      A                      A
 Frequencies --    443.9011               485.5596               522.9648
 Red. masses --      4.3027                 3.5087                 3.9102
 Frc consts  --      0.4995                 0.4874                 0.6301
 IR Inten    --     15.6658                30.4849                 7.6767

                     25                     26                     27
                      A                      A                      A
 Frequencies --    536.7477               594.2272               631.0437
 Red. masses --      5.1915                 5.2449                 3.2606
 Frc consts  --      0.8812                 1.0912                 0.7650
 IR Inten    --     26.9962                 5.5630                11.4604

                     28                     29                     30
                      A                      A                      A
 Frequencies --    730.5334               787.6687               852.3027
 Red. masses --      4.8566                 2.7772                 2.8961
 Frc consts  --      1.5271                 1.0152                 1.2395
 IR Inten    --     47.5393                19.1526                24.2750

                     31                     32                     33
                      A                      A                      A
 Frequencies --    914.5784               935.6002               955.6567
 Red. masses --      2.6578                 3.8413                 3.7672
 Frc consts  --      1.3098                 1.9811                 2.0271
 IR Inten    --      7.7017                39.6117                 8.2626

                     34                     35                     36
                      A                      A                      A
 Frequencies --    972.6253               996.8329              1018.4104
 Red. masses --      2.9208                 3.7780                 3.5636
 Frc consts  --      1.6280                 2.2119                 2.1776
 IR Inten    --     43.8733                40.0097                30.7517

                     37                     38                     39
                      A                      A                      A
 Frequencies --   1038.8688              1094.1044              1104.9066
 Red. masses --      2.5837                 1.8319                 2.6075
 Frc consts  --      1.6429                 1.2920                 1.8755
 IR Inten    --      6.7597                16.4325               111.0243

                     40                     41                     42
                      A                      A                      A
 Frequencies --   1125.6698              1139.6981              1143.8706
 Red. masses --      4.6416                 2.7160                 2.8873
 Frc consts  --      3.4653                 2.0786                 2.2258
 IR Inten    --    161.0445                81.4691                63.6680

                     43                     44                     45
                      A                      A                      A
 Frequencies --   1152.4836              1169.4065              1182.2357
 Red. masses --      3.4138                 3.4528                 1.3175
 Frc consts  --      2.6715                 2.7819                 1.0849
 IR Inten    --    214.7237               132.1656                17.9356

                     46                     47                     48
                      A                      A                      A
 Frequencies --   1186.3013              1187.2258              1191.9891
 Red. masses --      1.2766                 1.2972                 1.2655
 Frc consts  --      1.0585                 1.0773                 1.0594
 IR Inten    --      0.7272                 4.5174                 3.0492

                     49                     50                     51
                      A                      A                      A
 Frequencies --   1221.3002              1222.9407              1227.9021
 Red. masses --      1.6092                 1.5219                 1.6198
 Frc consts  --      1.4142                 1.3411                 1.4389
 IR Inten    --     88.7131                 5.6643                52.7987

                     52                     53                     54
                      A                      A                      A
 Frequencies --   1233.8502              1249.5485              1301.1689
 Red. masses --      1.6527                 1.8564                 1.5736
 Frc consts  --      1.4824                 1.7078                 1.5697
 IR Inten    --     43.3192                 8.6346                54.3939

                     55                     56                     57
                      A                      A                      A
 Frequencies --   1316.7102              1344.1841              1349.0754
 Red. masses --      1.3451                 1.2047                 1.2151
 Frc consts  --      1.3740                 1.2825                 1.3029
 IR Inten    --      1.7985                19.6559                 8.7552

                     58                     59                     60
                      A                      A                      A
 Frequencies --   1356.0918              1376.6677              1390.5311
 Red. masses --      1.2555                 1.2996                 1.3836
 Frc consts  --      1.3604                 1.4511                 1.5762
 IR Inten    --      5.6445                 4.3681                38.4602

                     61                     62                     63
                      A                      A                      A
 Frequencies --   1418.4760              1425.2652              1477.2018
 Red. masses --      1.3602                 1.5016                 1.1424
 Frc consts  --      1.6125                 1.7972                 1.4688
 IR Inten    --     40.4660                 6.7210                15.8903

                     64                     65                     66
                      A                      A                      A
 Frequencies --   1496.3996              1498.1735              1501.0832
 Red. masses --      1.1105                 1.0837                 1.1275
 Frc consts  --      1.4651                 1.4332                 1.4969
 IR Inten    --      1.5548                 7.7328                 0.6483

                     67                     68                     69
                      A                      A                      A
 Frequencies --   1501.9877              1509.7855              1512.1500
 Red. masses --      1.1287                 1.0748                 1.0707
 Frc consts  --      1.5002                 1.4434                 1.4424
 IR Inten    --      3.9328                12.1194                 2.3535

                     70                     71                     72
                      A                      A                      A
 Frequencies --   1515.5298              1516.8884              1523.5612
 Red. masses --      1.0761                 1.0617                 1.0688
 Frc consts  --      1.4562                 1.4393                 1.4618
 IR Inten    --     11.4744                 9.9279                 1.4002

                     73                     74                     75
                      A                      A                      A
 Frequencies --   1525.4675              1527.0080              1529.6194
 Red. masses --      1.0534                 1.0561                 1.0814
 Frc consts  --      1.4442                 1.4509                 1.4907
 IR Inten    --     32.6927                 8.8035                16.4292

                     76                     77                     78
                      A                      A                      A
 Frequencies --   1537.8566              1642.1981              2972.6916
 Red. masses --      1.0605                 6.0405                 1.0773
 Frc consts  --      1.4777                 9.5979                 5.6091
 IR Inten    --     14.8347               182.2971                42.0057

                     79                     80                     81
                      A                      A                      A
 Frequencies --   3030.6342              3038.3570              3039.2529
 Red. masses --      1.0346                 1.0337                 1.0344
 Frc consts  --      5.5988                 5.6222                 5.6294
 IR Inten    --     55.3320                13.1004                79.0310

                     82                     83                     84
                      A                      A                      A
 Frequencies --   3044.9584              3059.7817              3061.4341
 Red. masses --      1.0377                 1.0677                 1.0832
 Frc consts  --      5.6687                 5.8896                 5.9814
 IR Inten    --     29.7801                52.2199                22.5450

                     85                     86                     87
                      A                      A                      A
 Frequencies --   3087.1568              3090.8051              3101.3474
 Red. masses --      1.0856                 1.1062                 1.1072
 Frc consts  --      6.0961                 6.2265                 6.2744
 IR Inten    --      3.2406                55.8762                47.8715

                     88                     89                     90
                      A                      A                      A
 Frequencies --   3105.9995              3117.7351              3150.1518
 Red. masses --      1.1057                 1.1016                 1.0941
 Frc consts  --      6.2848                 6.3088                 6.3971
 IR Inten    --     47.1222                46.1579                 1.4149

                     91                     92                     93
                      A                      A                      A
 Frequencies --   3162.7971              3165.2167              3167.2954
 Red. masses --      1.0993                 1.0941                 1.1013
 Frc consts  --      6.4791                 6.4584                 6.5092
 IR Inten    --     24.0364                 5.1373                23.2812

                     94                     95                     96
                      A                      A                      A
 Frequencies --   3169.8985              3180.4484              3194.0421
 Red. masses --      1.1015                 1.1023                 1.0941
 Frc consts  --      6.5213                 6.5693                 6.5764
 IR Inten    --     18.5205                20.1199                 1.7429

 - Thermochemistry -
 -------------------
 Temperature   298.150 Kelvin.  Pressure   1.00000 Atm.
 Atom     1 has atomic number  6 and mass  12.00000

 Molecular mass:   219.12325 amu.
 Principal axes and moments of inertia in atomic units:
                           1         2         3
     Eigenvalues --  2220.157194224.459964379.35988
           X            0.99992   0.00038   0.01277
           Y           -0.00108   0.99851   0.05454
           Z           -0.01273  -0.05455   0.99843
 This molecule is an asymmetric top.
 Rotational symmetry number  1.
 Warning -- assumption of classical behavior for rotation
           may cause significant error
 Rotational temperatures (Kelvin)      0.03901     0.02050     0.01978
 Rotational constants (GHZ):           0.81289     0.42721     0.41210
 Zero-point vibrational energy     774619.7 (Joules/Mol)
                                  185.13856 (Kcal/Mol)
 Warning -- explicit consideration of  26 degrees of freedom as
           vibrations may cause significant error
 Vibrational temperatures:     52.75    89.28    96.96   108.47   134.48
          (Kelvin)            147.27   158.40   216.90   217.62   244.42
                              255.50   289.42   298.84   323.35   372.37
                              411.22   430.52   488.97   535.32   568.38
                              634.47   638.67   698.61   752.43   772.26
                              854.96   907.93  1051.07  1133.28  1226.27
                             1315.87  1346.12  1374.98  1399.39  1434.22
                             1465.27  1494.70  1574.17  1589.71  1619.59
                             1639.77  1645.77  1658.17  1682.52  1700.97
                             1706.82  1708.15  1715.01  1757.18  1759.54
                             1766.68  1775.24  1797.82  1872.09  1894.45
                             1933.98  1941.02  1951.11  1980.72  2000.66
                             2040.87  2050.64  2125.36  2152.99  2155.54
                             2159.72  2161.03  2172.24  2175.65  2180.51
                             2182.46  2192.06  2194.81  2197.02  2200.78
                             2212.63  2362.76  4277.04  4360.41  4371.52
                             4372.81  4381.02  4402.34  4404.72  4441.73
                             4446.98  4462.15  4468.84  4485.73  4532.37
                             4550.56  4554.04  4557.03  4560.78  4575.96
                             4595.51

 Zero-point correction=                           0.295037 (Hartree/Particle)
 Thermal correction to Energy=                    0.312263
 Thermal correction to Enthalpy=                  0.313207
 Thermal correction to Gibbs Free Energy=         0.249832
 Sum of electronic and zero-point Energies=           -768.031815
 Sum of electronic and thermal Energies=              -768.014590
 Sum of electronic and thermal Enthalpies=            -768.013645
 Sum of electronic and thermal Free Energies=         -768.077020

                     E (Thermal)             CV                S
                      KCal/Mol        Cal/Mol-Kelvin    Cal/Mol-Kelvin
 Total                  195.948             61.413            133.383
 Electronic               0.000              0.000              0.000
 Translational            0.889              2.981             42.056
 Rotational               0.889              2.981             32.085
 Vibrational            194.170             55.452             59.242
 Vibration     1          0.594              1.982              5.432
 Vibration     2          0.597              1.972              4.391
 Vibration     3          0.598              1.970              4.228
 Vibration     4          0.599              1.965              4.007
 Vibration     5          0.602              1.954              3.586
 Vibration     6          0.604              1.947              3.409
 Vibration     7          0.606              1.941              3.267
 Vibration     8          0.618              1.902              2.663
 Vibration     9          0.619              1.901              2.656
 Vibration    10          0.625              1.880              2.437
 Vibration    11          0.628              1.870              2.354
 Vibration    12          0.638              1.838              2.123
 Vibration    13          0.641              1.829              2.064
 Vibration    14          0.649              1.803              1.921
 Vibration    15          0.668              1.748              1.670
 Vibration    16          0.684              1.700              1.499
 Vibration    17          0.692              1.675              1.421
 Vibration    18          0.720              1.596              1.213
 Vibration    19          0.744              1.530              1.071
 Vibration    20          0.762              1.481              0.981
 Vibration    21          0.801              1.381              0.824
 Vibration    22          0.803              1.374              0.814
 Vibration    23          0.842              1.282              0.695
 Vibration    24          0.878              1.199              0.603
 Vibration    25          0.892              1.169              0.572
 Vibration    26          0.952              1.044              0.460

                           ! Non-Optimized Parameters !
 Normal termination of Gaussian 16 at Fri May 24 08:54:35 2019.
