 Gaussian 16, Revision A.03,
 Gaussian 16:  ES64L-G16RevA.03 25-Dec-2016

 -------------------------------------------------------------------
 #p b3lyp 6-31g* opt freq=noraman scrf=(pcm,solvent=tetrahydrofuran)
 -------------------------------------------------------------------

 -----
 title
 -----
 Symbolic Z-matrix:
 Charge =  1 Multiplicity = 1

 SCF Done:  E(RB3LYP) =  -768.330243985     A.U. after   13 cycles
 Optimization completed.
    -- Stationary point found.
 Normal termination of Gaussian 16 at Fri May 24 08:38:47 2019.

 --------------------------------------------------------------------
 #P Geom=AllCheck Guess=TCheck SCRF=Check GenChk RB3LYP/6-31G(d) Freq
 --------------------------------------------------------------------

 Structure from the checkpoint file:  "/scratch/Gau-60977.chk"
 -----
 title
 -----
 Charge =  1 Multiplicity = 1

                         Standard orientation:
 ---------------------------------------------------------------------
 Center     Atomic      Atomic             Coordinates (Angstroms)
 Number     Number       Type             X           Y           Z
 ---------------------------------------------------------------------
      1          6           0        0.936224    0.873995   -0.172857
      2          6           0        1.445421   -0.402950   -0.865508
      3          6           0        0.461816   -1.533701   -0.872727
      4          6           0       -1.213884   -0.346356    0.437233
      5          6           0       -0.062233    0.510074    0.953274
      6          1           0        0.739134   -2.481751   -1.334172
      7          1           0        1.680007   -0.149650   -1.908578
      8          1           0        1.810766    1.379494    0.252219
      9          1           0       -1.683095   -0.847741    1.283393
     10          1           0       -0.498507    1.429453    1.370111
     11          8           0       -0.661328   -1.544326   -0.313655
     12          8           0        2.541794   -0.987481   -0.184295
     13          8           0        0.319626    1.667619   -1.167856
     14          8           0        0.558491   -0.267720    1.958193
     15          6           0       -2.264439    0.300909   -0.470685
     16          1           0       -1.806223    0.607328   -1.412290
     17          1           0       -2.619848    1.207278    0.042657
     18          8           0       -3.317773   -0.581270   -0.773572
     19          6           0        3.705212   -1.231010   -0.993747
     20          1           0        4.462497   -1.620266   -0.312622
     21          1           0        3.504100   -1.971074   -1.776378
     22          1           0        4.054922   -0.297638   -1.449909
     23          6           0        0.386356    3.077972   -0.936799
     24          1           0       -0.146195    3.369342   -0.023244
     25          1           0        1.429878    3.410094   -0.869813
     26          1           0       -0.092531    3.550493   -1.795605
     27          6           0        1.388077    0.453668    2.870082
     28          1           0        0.841876    1.295915    3.314540
     29          1           0        1.660510   -0.254105    3.654763
     30          1           0        2.303011    0.822485    2.392357
     31          6           0       -4.336076   -0.652479    0.220807
     32          1           0       -4.777523    0.336792    0.404000
     33          1           0       -5.103201   -1.324267   -0.168893
     34          1           0       -3.964905   -1.057494    1.172503
 ---------------------------------------------------------------------

 SCF Done:  E(RB3LYP) =  -768.330243985     A.U. after    1 cycles

 The electronic state is 1-A.
 Alpha  occ. eigenvalues --  -19.32183 -19.21866 -19.19678 -19.19244 -19.18174
 Alpha  occ. eigenvalues --  -10.39046 -10.31451 -10.31371 -10.29480 -10.29316
 Alpha  occ. eigenvalues --  -10.27591 -10.26328 -10.25572 -10.25206 -10.24675
 Alpha  occ. eigenvalues --   -1.20871  -1.09788  -1.08066  -1.07106  -1.06409
 Alpha  occ. eigenvalues --   -0.86675  -0.85229  -0.76829  -0.74817  -0.74231
 Alpha  occ. eigenvalues --   -0.70946  -0.69426  -0.68995  -0.65484  -0.61463
 Alpha  occ. eigenvalues --   -0.58894  -0.58349  -0.56607  -0.53988  -0.53548
 Alpha  occ. eigenvalues --   -0.52936  -0.51171  -0.50898  -0.49946  -0.49390
 Alpha  occ. eigenvalues --   -0.48298  -0.47670  -0.46858  -0.46103  -0.45823
 Alpha  occ. eigenvalues --   -0.44183  -0.43442  -0.42088  -0.40969  -0.40533
 Alpha  occ. eigenvalues --   -0.39762  -0.37595  -0.36015  -0.35886  -0.34710
 Alpha  occ. eigenvalues --   -0.32562  -0.31425  -0.29050  -0.28287
 Alpha virt. eigenvalues --   -0.14386   0.00989   0.03621   0.04729   0.06893
 Alpha virt. eigenvalues --    0.07497   0.07771   0.08291   0.08946   0.09802
 Alpha virt. eigenvalues --    0.10961   0.11561   0.12656   0.12668   0.13149

 Mulliken charges:
               1
     1  C    0.106256
     2  C    0.044179
     3  C    0.306226
     4  C    0.054351
     5  C    0.070297
     6  H    0.271455
     7  H    0.235256
     8  H    0.191306
     9  H    0.233470
    10  H    0.187609
    11  O   -0.303981
    12  O   -0.461765
    13  O   -0.492241
    14  O   -0.485549
    15  C   -0.048449
    16  H    0.198422
    17  H    0.175812
    18  O   -0.465609
    19  C   -0.233104
    20  H    0.198728
    21  H    0.178678
    22  H    0.180804
    23  C   -0.224029
    24  H    0.163619
    25  H    0.168558
    26  H    0.188415
    27  C   -0.221037
    28  H    0.162044
    29  H    0.186418
    30  H    0.163763
    31  C   -0.224779
    32  H    0.158841
    33  H    0.182210
    34  H    0.153825
 Sum of Mulliken charges =   1.00000

 Dipole moment (field-independent basis, Debye):
    X=              2.9860    Y=              0.6703    Z=             -0.6989  Tot=              3.1391
 Quadrupole moment (field-independent basis, Debye-Ang):
   XX=            -60.6052   YY=            -70.7610   ZZ=            -77.8351
   XY=             -4.1450   XZ=            -10.9485   YZ=              6.7532

  Exact polarizability: 172.841  -4.109 134.810  -4.303   1.595 128.181
 Approx polarizability: 185.057  -0.550 154.271  -1.546   1.800 151.215

                      1                      2                      3
                      A                      A                      A
 Frequencies --     36.9628                56.6246                70.8753
 Red. masses --      3.6199                 3.3668                 2.5560
 Frc consts  --      0.0029                 0.0064                 0.0076
 IR Inten    --      3.7318                 1.1259                 0.3825

                      4                      5                      6
                      A                      A                      A
 Frequencies --     77.7986                94.9042                96.9117
 Red. masses --      2.8526                 2.6556                 2.9728
 Frc consts  --      0.0102                 0.0141                 0.0164
 IR Inten    --      1.2465                11.1681                 0.8808

                      7                      8                      9
                      A                      A                      A
 Frequencies --    103.6835               127.3173               133.4658
 Red. masses --      2.1436                 2.7264                 1.8446
 Frc consts  --      0.0136                 0.0260                 0.0194
 IR Inten    --      3.2973                 1.5961                 5.1663

                     10                     11                     12
                      A                      A                      A
 Frequencies --    153.8439               161.8693               194.0379
 Red. masses --      1.4432                 2.2505                 1.2638
 Frc consts  --      0.0201                 0.0347                 0.0280
 IR Inten    --      1.4329                 9.5971                 1.8759

                     13                     14                     15
                      A                      A                      A
 Frequencies --    205.4784               219.6252               271.0440
 Red. masses --      1.5951                 1.7593                 3.3343
 Frc consts  --      0.0397                 0.0500                 0.1443
 IR Inten    --      2.2347                 8.5900                10.7548

                     16                     17                     18
                      A                      A                      A
 Frequencies --    275.9067               301.3025               336.7509
 Red. masses --      4.1876                 4.7527                 3.5832
 Frc consts  --      0.1878                 0.2542                 0.2394
 IR Inten    --     10.5972                 6.4426                 1.7824

                     19                     20                     21
                      A                      A                      A
 Frequencies --    358.0580               368.2603               399.7425
 Red. masses --      4.0385                 4.3538                 3.9511
 Frc consts  --      0.3051                 0.3479                 0.3720
 IR Inten    --     20.4839                 5.9020                12.7142

                     22                     23                     24
                      A                      A                      A
 Frequencies --    458.1485               477.1372               504.9272
 Red. masses --      2.4750                 3.2471                 5.4313
 Frc consts  --      0.3061                 0.4355                 0.8158
 IR Inten    --      7.6161                12.6385                 3.7770

                     25                     26                     27
                      A                      A                      A
 Frequencies --    552.8557               576.7179               656.6466
 Red. masses --      4.3152                 4.3842                 4.5865
 Frc consts  --      0.7771                 0.8592                 1.1652
 IR Inten    --     51.6975                14.2104                30.0154

                     28                     29                     30
                      A                      A                      A
 Frequencies --    684.2737               848.8253               901.2934
 Red. masses --      4.0036                 2.4795                 2.5938
 Frc consts  --      1.1045                 1.0526                 1.2414
 IR Inten    --     33.4492                 9.0588                45.1165

                     31                     32                     33
                      A                      A                      A
 Frequencies --    912.8834               932.1480               951.9014
 Red. masses --      3.2216                 4.0242                 3.9959
 Frc consts  --      1.5818                 2.0602                 2.1333
 IR Inten    --     12.8188                78.0911                19.6728

                     34                     35                     36
                      A                      A                      A
 Frequencies --    963.9705              1001.4558              1030.1955
 Red. masses --      3.6572                 3.1741                 2.8899
 Frc consts  --      2.0023                 1.8756                 1.8070
 IR Inten    --      6.6984                10.3630                21.0972

                     37                     38                     39
                      A                      A                      A
 Frequencies --   1040.5535              1075.3087              1108.4712
 Red. masses --      3.1187                 2.3872                 2.6555
 Frc consts  --      1.9895                 1.6263                 1.9224
 IR Inten    --     20.5108                21.2085               208.0548

                     40                     41                     42
                      A                      A                      A
 Frequencies --   1114.4670              1134.5913              1139.6028
 Red. masses --      3.3428                 1.9860                 5.2609
 Frc consts  --      2.4462                 1.5063                 4.0255
 IR Inten    --     21.1744                64.0291               225.4638

                     43                     44                     45
                      A                      A                      A
 Frequencies --   1145.8349              1160.1780              1177.5610
 Red. masses --      3.3229                 3.1904                 1.2743
 Frc consts  --      2.5704                 2.5301                 1.0411
 IR Inten    --    244.2628                79.4258                 0.9338

                     46                     47                     48
                      A                      A                      A
 Frequencies --   1184.7450              1187.5833              1188.5763
 Red. masses --      1.2721                 1.2824                 1.2940
 Frc consts  --      1.0520                 1.0656                 1.0770
 IR Inten    --      4.8615                 0.8068                 8.3809

                     49                     50                     51
                      A                      A                      A
 Frequencies --   1207.5040              1226.7628              1229.1640
 Red. masses --      1.4215                 1.5614                 1.6496
 Frc consts  --      1.2212                 1.3845                 1.4684
 IR Inten    --     23.0680                 6.4001                75.0993

                     52                     53                     54
                      A                      A                      A
 Frequencies --   1229.6058              1252.4129              1305.0595
 Red. masses --      1.5781                 2.1167                 1.3371
 Frc consts  --      1.4058                 1.9562                 1.3417
 IR Inten    --     61.1200                13.7842                 0.9443

                     55                     56                     57
                      A                      A                      A
 Frequencies --   1323.0459              1329.9098              1355.5042
 Red. masses --      1.2615                 1.1842                 1.1960
 Frc consts  --      1.3010                 1.2340                 1.2947
 IR Inten    --     10.5948                 6.5853                 9.8703

                     58                     59                     60
                      A                      A                      A
 Frequencies --   1359.1247              1372.2768              1390.1494
 Red. masses --      1.3740                 1.3028                 1.6141
 Frc consts  --      1.4954                 1.4455                 1.8379
 IR Inten    --     31.7964                51.9430                20.6266

                     61                     62                     63
                      A                      A                      A
 Frequencies --   1420.8015              1427.1206              1442.5563
 Red. masses --      1.3246                 1.4179                 1.3259
 Frc consts  --      1.5754                 1.7014                 1.6256
 IR Inten    --     20.7271                32.1687                49.0636

                     64                     65                     66
                      A                      A                      A
 Frequencies --   1492.5620              1496.7161              1497.6870
 Red. masses --      1.1346                 1.1241                 1.1084
 Frc consts  --      1.4893                 1.4837                 1.4649
 IR Inten    --     12.1043                 1.4640                 0.9087

                     67                     68                     69
                      A                      A                      A
 Frequencies --   1500.8646              1509.9310              1511.2083
 Red. masses --      1.1117                 1.0546                 1.0739
 Frc consts  --      1.4755                 1.4167                 1.4450
 IR Inten    --      3.1955                 8.6736                14.0999

                     70                     71                     72
                      A                      A                      A
 Frequencies --   1512.1640              1516.8218              1519.4957
 Red. masses --      1.0706                 1.0744                 1.0876
 Frc consts  --      1.4424                 1.4564                 1.4796
 IR Inten    --      8.2798                 2.3809                 9.4910

                     73                     74                     75
                      A                      A                      A
 Frequencies --   1524.7478              1527.6813              1531.0424
 Red. masses --      1.0526                 1.0518                 1.0543
 Frc consts  --      1.4418                 1.4463                 1.4560
 IR Inten    --     27.0229                18.4910                 3.1968

                     76                     77                     78
                      A                      A                      A
 Frequencies --   1531.2289              1649.3491              3019.7754
 Red. masses --      1.0664                 5.7456                 1.0371
 Frc consts  --      1.4732                 9.2089                 5.5723
 IR Inten    --     12.9112               326.2044                52.7262

                     79                     80                     81
                      A                      A                      A
 Frequencies --   3031.0607              3036.5639              3037.1561
 Red. masses --      1.0704                 1.0370                 1.0441
 Frc consts  --      5.7943                 5.6336                 5.6744
 IR Inten    --     22.7027                33.4912                 8.1662

                     82                     83                     84
                      A                      A                      A
 Frequencies --   3040.4763              3045.6190              3051.7992
 Red. masses --      1.0690                 1.0355                 1.0802
 Frc consts  --      5.8226                 5.6590                 5.9272
 IR Inten    --     96.6192                42.0587                 0.6498

                     85                     86                     87
                      A                      A                      A
 Frequencies --   3075.7200              3077.2026              3100.3205
 Red. masses --      1.1061                 1.0861                 1.1075
 Frc consts  --      6.1653                 6.0596                 6.2723
 IR Inten    --     69.4068                14.2873                59.3676

                     88                     89                     90
                      A                      A                      A
 Frequencies --   3103.5697              3115.3637              3154.5130
 Red. masses --      1.1046                 1.1085                 1.0916
 Frc consts  --      6.2686                 6.3390                 6.3999
 IR Inten    --     44.6830                31.9640                 2.7773

                     91                     92                     93
                      A                      A                      A
 Frequencies --   3158.6699              3164.5360              3169.2048
 Red. masses --      1.0991                 1.1012                 1.1013
 Frc consts  --      6.4610                 6.4971                 6.5171
 IR Inten    --     28.5534                23.3215                20.4117

                     94                     95                     96
                      A                      A                      A
 Frequencies --   3170.0452              3181.2618              3206.3358
 Red. masses --      1.0891                 1.1027                 1.0936
 Frc consts  --      6.4482                 6.5752                 6.6241
 IR Inten    --      3.6224                14.2605                 0.5875

 - Thermochemistry -
 -------------------
 Temperature   298.150 Kelvin.  Pressure   1.00000 Atm.
 Atom     1 has atomic number  6 and mass  12.00000

 Molecular mass:   219.12325 amu.
 Principal axes and moments of inertia in atomic units:
                           1         2         3
     Eigenvalues --  2331.525034548.894124716.90798
           X            0.99988  -0.00269  -0.01512
           Y            0.00383   0.99708   0.07628
           Z            0.01487  -0.07633   0.99697
 This molecule is an asymmetric top.
 Rotational symmetry number  1.
 Warning -- assumption of classical behavior for rotation
           may cause significant error
 Rotational temperatures (Kelvin)      0.03715     0.01904     0.01836
 Rotational constants (GHZ):           0.77406     0.39674     0.38261
 Zero-point vibrational energy     773308.0 (Joules/Mol)
                                  184.82506 (Kcal/Mol)
 Warning -- explicit consideration of  26 degrees of freedom as
           vibrations may cause significant error
 Vibrational temperatures:     53.18    81.47   101.97   111.93   136.55
          (Kelvin)            139.43   149.18   183.18   192.03   221.35
                              232.89   279.18   295.64   315.99   389.97
                              396.97   433.51   484.51   515.17   529.84
                              575.14   659.17   686.49   726.48   795.44
                              829.77   944.77   984.52  1221.27  1296.76
                             1313.44  1341.15  1369.57  1386.94  1440.87
                             1482.22  1497.12  1547.13  1594.84  1603.47
                             1632.42  1639.63  1648.60  1669.24  1694.25
                             1704.58  1708.67  1710.10  1737.33  1765.04
                             1768.49  1769.13  1801.94  1877.69  1903.57
                             1913.44  1950.27  1955.48  1974.40  2000.11
                             2044.22  2053.31  2075.52  2147.46  2153.44
                             2154.84  2159.41  2172.45  2174.29  2175.67
                             2182.37  2186.22  2193.77  2197.99  2202.83
                             2203.10  2373.05  4344.78  4361.02  4368.94
                             4369.79  4374.57  4381.97  4390.86  4425.28
                             4427.41  4460.67  4465.34  4482.31  4538.64
                             4544.62  4553.06  4559.78  4560.99  4577.13
                             4613.20

 Zero-point correction=                           0.294537 (Hartree/Particle)
 Thermal correction to Energy=                    0.312001
 Thermal correction to Enthalpy=                  0.312945
 Thermal correction to Gibbs Free Energy=         0.248757
 Sum of electronic and zero-point Energies=           -768.035707
 Sum of electronic and thermal Energies=              -768.018243
 Sum of electronic and thermal Enthalpies=            -768.017299
 Sum of electronic and thermal Free Energies=         -768.081487

                     E (Thermal)             CV                S
                      KCal/Mol        Cal/Mol-Kelvin    Cal/Mol-Kelvin
 Total                  195.783             61.664            135.096
 Electronic               0.000              0.000              0.000
 Translational            0.889              2.981             42.056
 Rotational               0.889              2.981             32.281
 Vibrational            194.006             55.702             60.758
 Vibration     1          0.594              1.982              5.416
 Vibration     2          0.596              1.975              4.571
 Vibration     3          0.598              1.968              4.129
 Vibration     4          0.599              1.964              3.946
 Vibration     5          0.603              1.953              3.556
 Vibration     6          0.603              1.951              3.515
 Vibration     7          0.605              1.946              3.384
 Vibration     8          0.611              1.926              2.986
 Vibration     9          0.613              1.920              2.895
 Vibration    10          0.619              1.898              2.624
 Vibration    11          0.622              1.889              2.528
 Vibration    12          0.635              1.848              2.189
 Vibration    13          0.640              1.832              2.083
 Vibration    14          0.647              1.811              1.962
 Vibration    15          0.675              1.727              1.590
 Vibration    16          0.678              1.718              1.559
 Vibration    17          0.693              1.671              1.410
 Vibration    18          0.717              1.602              1.228
 Vibration    19          0.733              1.559              1.131
 Vibration    20          0.741              1.537              1.087
 Vibration    21          0.766              1.471              0.964
 Vibration    22          0.816              1.343              0.772
 Vibration    23          0.834              1.301              0.718
 Vibration    24          0.860              1.239              0.646
 Vibration    25          0.908              1.133              0.538
 Vibration    26          0.933              1.082              0.491

 Optimization completed on the basis of negligible forces.
    -- Stationary point found.
 Normal termination of Gaussian 16 at Fri May 24 09:29:18 2019.
