 Gaussian 16, Revision A.03,
 Gaussian 16:  ES64L-G16RevA.03 25-Dec-2016

 -------------------------------------------------------------------
 #p b3lyp 6-31g* opt freq=noraman scrf=(pcm,solvent=tetrahydrofuran)
 -------------------------------------------------------------------

 -----
 title
 -----
 Symbolic Z-matrix:
 Charge =  1 Multiplicity = 1

 SCF Done:  E(RB3LYP) =  -768.321795919     A.U. after   14 cycles
 Optimization completed.
    -- Stationary point found.
 Normal termination of Gaussian 16 at Fri May 24 08:36:00 2019.

 --------------------------------------------------------------------
 #P Geom=AllCheck Guess=TCheck SCRF=Check GenChk RB3LYP/6-31G(d) Freq
 --------------------------------------------------------------------

 Structure from the checkpoint file:  "/scratch/Gau-14758.chk"
 -----
 title
 -----
 Charge =  1 Multiplicity = 1

                         Standard orientation:
 ---------------------------------------------------------------------
 Center     Atomic      Atomic             Coordinates (Angstroms)
 Number     Number       Type             X           Y           Z
 ---------------------------------------------------------------------
      1          6           0       -0.992204    0.445849   -0.516394
      2          6           0       -1.785061   -0.751671    0.080993
      3          6           0       -1.065063   -2.032531   -0.142387
      4          6           0        1.138679   -1.001022   -0.327701
      5          6           0        0.500136    0.385077   -0.119180
      6          1           0       -1.628536   -2.965039   -0.198929
      7          1           0       -1.832985   -0.653480    1.182831
      8          1           0       -1.050484    0.353005   -1.605465
      9          1           0        1.536320   -1.059530   -1.341393
     10          1           0        0.625958    0.669664    0.932850
     11          8           0        0.172043   -2.152088   -0.316014
     12          8           0       -3.052445   -0.918782   -0.490622
     13          8           0       -1.609119    1.681783   -0.236520
     14          8           0        1.265678    1.229903   -0.957455
     15          6           0        2.189107   -1.387248    0.738154
     16          1           0        2.669720   -2.331823    0.448521
     17          1           0        1.675320   -1.536302    1.693736
     18          8           0        3.120634   -0.357011    0.935085
     19          6           0       -4.159418   -0.399346    0.260008
     20          1           0       -4.177178   -0.814729    1.274841
     21          1           0       -4.125112    0.693517    0.298171
     22          1           0       -5.054746   -0.716960   -0.275689
     23          6           0       -1.672521    2.125422    1.121601
     24          1           0       -2.257360    3.046105    1.097806
     25          1           0       -2.182417    1.406342    1.775335
     26          1           0       -0.683682    2.346136    1.537096
     27          6           0        1.556756    2.529076   -0.436673
     28          1           0        0.654663    3.146033   -0.373948
     29          1           0        2.034265    2.456419    0.548216
     30          1           0        2.255029    2.984214   -1.141566
     31          6           0        4.142402   -0.275369   -0.061290
     32          1           0        4.870278    0.449820    0.307302
     33          1           0        4.634970   -1.247213   -0.196947
     34          1           0        3.744767    0.073964   -1.021338
 ---------------------------------------------------------------------

 SCF Done:  E(RB3LYP) =  -768.321795919     A.U. after    1 cycles

 The electronic state is 1-A.
 Alpha  occ. eigenvalues --  -19.33314 -19.20766 -19.19806 -19.19104 -19.18874
 Alpha  occ. eigenvalues --  -10.39773 -10.32001 -10.31966 -10.29520 -10.29497
 Alpha  occ. eigenvalues --  -10.28051 -10.25861 -10.25762 -10.24792 -10.24636
 Alpha  occ. eigenvalues --   -1.21965  -1.09692  -1.08090  -1.06990  -1.06284
 Alpha  occ. eigenvalues --   -0.87228  -0.85912  -0.77503  -0.75150  -0.74433
 Alpha  occ. eigenvalues --   -0.71343  -0.69185  -0.67609  -0.65447  -0.62339
 Alpha  occ. eigenvalues --   -0.60634  -0.59273  -0.55780  -0.55021  -0.53670
 Alpha  occ. eigenvalues --   -0.52818  -0.51794  -0.50754  -0.50361  -0.49094
 Alpha  occ. eigenvalues --   -0.48385  -0.47639  -0.46567  -0.45746  -0.45551
 Alpha  occ. eigenvalues --   -0.44740  -0.43119  -0.42234  -0.41793  -0.40621
 Alpha  occ. eigenvalues --   -0.39840  -0.37099  -0.35776  -0.35223  -0.34700
 Alpha  occ. eigenvalues --   -0.32566  -0.31175  -0.29679  -0.27822
 Alpha virt. eigenvalues --   -0.15312  -0.00456   0.04202   0.04889   0.06430
 Alpha virt. eigenvalues --    0.06759   0.08320   0.08713   0.09976   0.10621
 Alpha virt. eigenvalues --    0.10999   0.11559   0.11865   0.12538   0.13175

 Mulliken charges:
               1
     1  C    0.137917
     2  C    0.015781
     3  C    0.301573
     4  C    0.054561
     5  C    0.082726
     6  H    0.280392
     7  H    0.232633
     8  H    0.196633
     9  H    0.243969
    10  H    0.181262
    11  O   -0.310739
    12  O   -0.474532
    13  O   -0.476665
    14  O   -0.484258
    15  C   -0.045834
    16  H    0.179912
    17  H    0.184349
    18  O   -0.461312
    19  C   -0.232514
    20  H    0.170039
    21  H    0.182569
    22  H    0.193706
    23  C   -0.243872
    24  H    0.196012
    25  H    0.158067
    26  H    0.168725
    27  C   -0.226927
    28  H    0.170117
    29  H    0.165534
    30  H    0.181548
    31  C   -0.226094
    32  H    0.181119
    33  H    0.159383
    34  H    0.164219
 Sum of Mulliken charges =   1.00000

 Dipole moment (field-independent basis, Debye):
    X=             -2.0196    Y=             -4.4933    Z=              2.3197  Tot=              5.4451
 Quadrupole moment (field-independent basis, Debye-Ang):
   XX=            -60.3628   YY=            -67.8669   ZZ=            -86.0424
   XY=              3.3441   XZ=            -10.3035   YZ=              3.1430

  Exact polarizability: 177.129   2.918 151.641  -6.092   2.393 112.939
 Approx polarizability: 184.110   0.481 173.223  -5.044   3.642 144.050

                      1                      2                      3
                      A                      A                      A
 Frequencies --     22.3595                55.9968                69.3750
 Red. masses --      3.9119                 3.4391                 3.2687
 Frc consts  --      0.0012                 0.0064                 0.0093
 IR Inten    --      1.9560                 2.6534                 0.3107

                      4                      5                      6
                      A                      A                      A
 Frequencies --     80.0756                92.4352               120.8856
 Red. masses --      2.7009                 2.7574                 2.2511
 Frc consts  --      0.0102                 0.0139                 0.0194
 IR Inten    --      9.4912                 7.3240                 1.8187

                      7                      8                      9
                      A                      A                      A
 Frequencies --    129.0863               148.4994               173.0032
 Red. masses --      1.8263                 2.2551                 1.9876
 Frc consts  --      0.0179                 0.0293                 0.0350
 IR Inten    --      1.8751                 4.7253                 0.4617

                     10                     11                     12
                      A                      A                      A
 Frequencies --    185.7229               191.0706               208.3176
 Red. masses --      1.6337                 1.3483                 1.2241
 Frc consts  --      0.0332                 0.0290                 0.0313
 IR Inten    --      1.6412                 2.0572                 1.1042

                     13                     14                     15
                      A                      A                      A
 Frequencies --    218.9980               234.9059               270.3344
 Red. masses --      2.7850                 2.4018                 3.0690
 Frc consts  --      0.0787                 0.0781                 0.1321
 IR Inten    --      2.8839                 3.3565                 5.5260

                     16                     17                     18
                      A                      A                      A
 Frequencies --    277.5717               285.6317               314.3750
 Red. masses --      4.2575                 3.7534                 4.1548
 Frc consts  --      0.1933                 0.1804                 0.2419
 IR Inten    --     24.3653                 1.8731                 2.1282

                     19                     20                     21
                      A                      A                      A
 Frequencies --    375.5690               406.3739               416.9282
 Red. masses --      4.7199                 3.0037                 3.6523
 Frc consts  --      0.3923                 0.2922                 0.3741
 IR Inten    --      2.0643                 5.3696                 5.1820

                     22                     23                     24
                      A                      A                      A
 Frequencies --    441.5377               466.2762               490.3750
 Red. masses --      4.3623                 3.9706                 3.7978
 Frc consts  --      0.5011                 0.5086                 0.5381
 IR Inten    --     35.7684                19.9230                 3.2371

                     25                     26                     27
                      A                      A                      A
 Frequencies --    538.7212               567.2610               579.9254
 Red. masses --      3.6543                 3.1782                 3.2295
 Frc consts  --      0.6249                 0.6026                 0.6399
 IR Inten    --     30.3405                 7.5990                10.7951

                     28                     29                     30
                      A                      A                      A
 Frequencies --    721.0261               805.4853               833.3728
 Red. masses --      3.9641                 6.3774                 2.0287
 Frc consts  --      1.2142                 2.4379                 0.8301
 IR Inten    --     79.5698                50.9518                 4.6434

                     31                     32                     33
                      A                      A                      A
 Frequencies --    923.2286               935.6345               958.2695
 Red. masses --      2.6429                 4.5166                 3.5860
 Frc consts  --      1.3273                 2.3296                 1.9402
 IR Inten    --     12.7017                44.4415                34.7376

                     34                     35                     36
                      A                      A                      A
 Frequencies --    965.5855              1005.5276              1048.9064
 Red. masses --      3.3662                 5.1592                 3.4766
 Frc consts  --      1.8492                 3.0734                 2.2536
 IR Inten    --     19.8430                30.2320                61.8890

                     37                     38                     39
                      A                      A                      A
 Frequencies --   1060.5697              1084.2251              1108.9918
 Red. masses --      2.7257                 2.9296                 2.6556
 Frc consts  --      1.8063                 2.0291                 1.9243
 IR Inten    --      3.0416                73.0627                22.9007

                     40                     41                     42
                      A                      A                      A
 Frequencies --   1140.1728              1141.5082              1145.7713
 Red. masses --      2.7888                 3.7182                 3.5355
 Frc consts  --      2.1360                 2.8546                 2.7346
 IR Inten    --     30.8689               314.2268               113.9625

                     43                     44                     45
                      A                      A                      A
 Frequencies --   1161.3947              1166.7225              1178.0887
 Red. masses --      3.6368                 2.9435                 1.2945
 Frc consts  --      2.8902                 2.3608                 1.0586
 IR Inten    --     70.3261               104.0714                 1.6101

                     46                     47                     48
                      A                      A                      A
 Frequencies --   1179.5362              1185.0710              1185.4844
 Red. masses --      1.2605                 1.2930                 1.3118
 Frc consts  --      1.0333                 1.0699                 1.0862
 IR Inten    --      1.9183                 6.0294                 2.8712

                     49                     50                     51
                      A                      A                      A
 Frequencies --   1213.7647              1225.6371              1227.9392
 Red. masses --      1.5348                 1.7639                 1.6152
 Frc consts  --      1.3322                 1.5611                 1.4349
 IR Inten    --     89.1978                93.2718                69.2799

                     52                     53                     54
                      A                      A                      A
 Frequencies --   1231.4169              1252.1668              1289.8121
 Red. masses --      1.5644                 1.6421                 1.3717
 Frc consts  --      1.3977                 1.5170                 1.3445
 IR Inten    --     33.3429                15.1535                82.5481

                     55                     56                     57
                      A                      A                      A
 Frequencies --   1315.7451              1325.8674              1340.4679
 Red. masses --      1.3319                 1.2092                 1.2366
 Frc consts  --      1.3585                 1.2524                 1.3091
 IR Inten    --      3.6022                36.3357                 0.1801

                     58                     59                     60
                      A                      A                      A
 Frequencies --   1364.8633              1383.4198              1400.2074
 Red. masses --      1.2212                 1.3316                 1.3651
 Frc consts  --      1.3403                 1.5015                 1.5769
 IR Inten    --      2.7623                13.1750                31.2547

                     61                     62                     63
                      A                      A                      A
 Frequencies --   1424.4070              1434.4516              1448.2621
 Red. masses --      1.3233                 1.2572                 1.1834
 Frc consts  --      1.5819                 1.5242                 1.4624
 IR Inten    --     10.2887                12.7776                27.4929

                     64                     65                     66
                      A                      A                      A
 Frequencies --   1495.3245              1497.8320              1499.4455
 Red. masses --      1.1594                 1.1219                 1.1516
 Frc consts  --      1.5275                 1.4830                 1.5255
 IR Inten    --      1.9439                 2.0473                 0.3528

                     67                     68                     69
                      A                      A                      A
 Frequencies --   1505.2911              1511.8717              1512.5672
 Red. masses --      1.1194                 1.0630                 1.0582
 Frc consts  --      1.4945                 1.4316                 1.4264
 IR Inten    --      0.5941                13.0579                 5.3592

                     70                     71                     72
                      A                      A                      A
 Frequencies --   1514.0743              1522.0700              1526.8576
 Red. masses --      1.0623                 1.0534                 1.0507
 Frc consts  --      1.4348                 1.4378                 1.4432
 IR Inten    --      6.9021                13.0826                11.3493

                     73                     74                     75
                      A                      A                      A
 Frequencies --   1528.0892              1530.4667              1533.1837
 Red. masses --      1.0616                 1.0474                 1.0776
 Frc consts  --      1.4605                 1.4455                 1.4924
 IR Inten    --      1.5776                19.9841                12.0202

                     76                     77                     78
                      A                      A                      A
 Frequencies --   1539.6930              1650.0582              2967.5563
 Red. masses --      1.0555                 7.1759                 1.0765
 Frc consts  --      1.4742                11.5113                 5.5853
 IR Inten    --      5.7145               300.5703                22.4882

                     79                     80                     81
                      A                      A                      A
 Frequencies --   3032.7436              3043.1188              3043.6825
 Red. masses --      1.0367                 1.0398                 1.0583
 Frc consts  --      5.6179                 5.6736                 5.7764
 IR Inten    --     47.5510                28.0276                60.0282

                     82                     83                     84
                      A                      A                      A
 Frequencies --   3046.7961              3056.1424              3066.8513
 Red. masses --      1.0337                 1.0335                 1.0831
 Frc consts  --      5.6535                 5.6873                 6.0019
 IR Inten    --     40.7251                51.7411                22.9213

                     85                     86                     87
                      A                      A                      A
 Frequencies --   3100.1267              3103.9147              3109.4932
 Red. masses --      1.1055                 1.0863                 1.1035
 Frc consts  --      6.2598                 6.1663                 6.2866
 IR Inten    --     48.3989                 9.8950                19.8195

                     88                     89                     90
                      A                      A                      A
 Frequencies --   3111.0519              3120.8327              3132.4623
 Red. masses --      1.1003                 1.1050                 1.1051
 Frc consts  --      6.2742                 6.3408                 6.3888
 IR Inten    --     64.9427                35.8934                29.5222

                     91                     92                     93
                      A                      A                      A
 Frequencies --   3156.1100              3160.9833              3162.6797
 Red. masses --      1.0884                 1.1009                 1.1032
 Frc consts  --      6.3877                 6.4808                 6.5018
 IR Inten    --      0.7490                25.0598                25.6782

                     94                     95                     96
                      A                      A                      A
 Frequencies --   3167.7641              3178.1843              3198.3701
 Red. masses --      1.1018                 1.1039                 1.0947
 Frc consts  --      6.5143                 6.5693                 6.5976
 IR Inten    --     16.2914                18.1193                 3.0698

 - Thermochemistry -
 -------------------
 Temperature   298.150 Kelvin.  Pressure   1.00000 Atm.
 Atom     1 has atomic number  6 and mass  12.00000

 Molecular mass:   219.12325 amu.
 Principal axes and moments of inertia in atomic units:
                           1         2         3
     Eigenvalues --  1922.351974408.195145718.13816
           X            0.99990  -0.00151  -0.01406
           Y            0.00165   0.99995   0.00997
           Z            0.01405  -0.00999   0.99985
 This molecule is an asymmetric top.
 Rotational symmetry number  1.
 Warning -- assumption of classical behavior for rotation
           may cause significant error
 Rotational temperatures (Kelvin)      0.04506     0.01965     0.01515
 Rotational constants (GHZ):           0.93882     0.40941     0.31562
 Zero-point vibrational energy     774583.8 (Joules/Mol)
                                  185.12998 (Kcal/Mol)
 Warning -- explicit consideration of  27 degrees of freedom as
           vibrations may cause significant error
 Vibrational temperatures:     32.17    80.57    99.82   115.21   132.99
          (Kelvin)            173.93   185.73   213.66   248.91   267.21
                              274.91   299.72   315.09   337.98   388.95
                              399.36   410.96   452.32   540.36   584.68
                              599.87   635.27   670.87   705.54   775.10
                              816.16   834.38  1037.40  1158.91  1199.04
                             1328.32  1346.17  1378.74  1389.26  1446.73
                             1509.14  1525.92  1559.96  1595.59  1640.45
                             1642.38  1648.51  1670.99  1678.65  1695.01
                             1697.09  1705.05  1705.65  1746.34  1763.42
                             1766.73  1771.73  1801.59  1855.75  1893.06
                             1907.63  1928.63  1963.73  1990.43  2014.59
                             2049.40  2063.86  2083.73  2151.44  2155.05
                             2157.37  2165.78  2175.25  2176.25  2178.42
                             2189.92  2196.81  2198.58  2202.00  2205.91
                             2215.27  2374.07  4269.65  4363.44  4378.37
                             4379.18  4383.66  4397.11  4412.52  4460.39
                             4465.84  4473.87  4476.11  4490.18  4506.91
                             4540.94  4547.95  4550.39  4557.71  4572.70
                             4601.74

 Zero-point correction=                           0.295023 (Hartree/Particle)
 Thermal correction to Energy=                    0.312215
 Thermal correction to Enthalpy=                  0.313159
 Thermal correction to Gibbs Free Energy=         0.249662
 Sum of electronic and zero-point Energies=           -768.026773
 Sum of electronic and thermal Energies=              -768.009581
 Sum of electronic and thermal Enthalpies=            -768.008637
 Sum of electronic and thermal Free Energies=         -768.072134

                     E (Thermal)             CV                S
                      KCal/Mol        Cal/Mol-Kelvin    Cal/Mol-Kelvin
 Total                  195.918             61.610            133.641
 Electronic               0.000              0.000              0.000
 Translational            0.889              2.981             42.056
 Rotational               0.889              2.981             32.249
 Vibrational            194.140             55.649             59.335
 Vibration     1          0.593              1.985              6.413
 Vibration     2          0.596              1.975              4.594
 Vibration     3          0.598              1.969              4.171
 Vibration     4          0.600              1.963              3.889
 Vibration     5          0.602              1.955              3.608
 Vibration     6          0.609              1.932              3.086
 Vibration     7          0.612              1.924              2.960
 Vibration     8          0.618              1.904              2.691
 Vibration     9          0.627              1.876              2.403
 Vibration    10          0.632              1.859              2.270
 Vibration    11          0.634              1.852              2.217
 Vibration    12          0.642              1.828              2.058
 Vibration    13          0.647              1.812              1.967
 Vibration    14          0.655              1.787              1.841
 Vibration    15          0.674              1.728              1.594
 Vibration    16          0.679              1.715              1.549
 Vibration    17          0.683              1.700              1.500
 Vibration    18          0.702              1.646              1.339
 Vibration    19          0.746              1.522              1.057
 Vibration    20          0.771              1.456              0.940
 Vibration    21          0.780              1.433              0.902
 Vibration    22          0.801              1.380              0.822
 Vibration    23          0.824              1.325              0.748
 Vibration    24          0.846              1.271              0.683
 Vibration    25          0.894              1.164              0.568
 Vibration    26          0.923              1.102              0.510
 Vibration    27          0.937              1.075              0.485

                           ! Non-Optimized Parameters !
 Normal termination of Gaussian 16 at Fri May 24 09:13:45 2019.
