 Gaussian 16, Revision A.03,
 Gaussian 16:  ES64L-G16RevA.03 25-Dec-2016

 ----------------------------------------------------------------------
 #p b3lyp 6-31g* opt=(maxstep=1,calcfc) freq=noraman scrf=(pcm,solvent=
 tetrahydrofuran)
 ----------------------------------------------------------------------

 -----
 title
 -----
 Symbolic Z-matrix:
 Charge =  1 Multiplicity = 1

 SCF Done:  E(RB3LYP) =  -768.331533119     A.U. after   13 cycles
 Optimization completed.
    -- Stationary point found.
 Normal termination of Gaussian 16 at Sat May 25 18:40:37 2019.

 --------------------------------------------------------------------
 #P Geom=AllCheck Guess=TCheck SCRF=Check GenChk RB3LYP/6-31G(d) Freq
 --------------------------------------------------------------------

 Structure from the checkpoint file:  "/scratch/Gau-28469.chk"
 -----
 title
 -----
 Charge =  1 Multiplicity = 1

                         Standard orientation:
 ---------------------------------------------------------------------
 Center     Atomic      Atomic             Coordinates (Angstroms)
 Number     Number       Type             X           Y           Z
 ---------------------------------------------------------------------
      1          6           0       -0.945796   -0.381010    0.912915
      2          6           0       -1.475979   -0.841864   -0.458511
      3          6           0       -0.611653   -0.451011   -1.617519
      4          6           0        1.024195    0.735625   -0.261055
      5          6           0       -0.093421    0.898410    0.773968
      6          1           0       -0.935363   -0.697649   -2.629130
      7          1           0       -1.564337   -1.935981   -0.431739
      8          1           0       -1.815581   -0.152734    1.539371
      9          1           0        1.406920    1.707163   -0.574147
     10          1           0        0.379810    1.126083    1.739009
     11          8           0        0.431781    0.245065   -1.569113
     12          8           0       -2.692455   -0.206432   -0.812644
     13          8           0       -0.185909   -1.454407    1.429869
     14          8           0       -0.979909    1.922342    0.377386
     15          6           0        2.198068   -0.170808    0.070216
     16          1           0        1.875049   -1.215767    0.161066
     17          1           0        2.585428    0.141887    1.054435
     18          8           0        3.159289   -0.000366   -0.944828
     19          6           0       -3.706415   -1.091653   -1.317388
     20          1           0       -3.379303   -1.599301   -2.232090
     21          1           0       -3.969327   -1.837526   -0.558611
     22          1           0       -4.567889   -0.461413   -1.539320
     23          6           0       -0.125186   -1.508745    2.858223
     24          1           0       -1.131821   -1.597043    3.285315
     25          1           0        0.456017   -2.398476    3.104597
     26          1           0        0.371052   -0.626967    3.281662
     27          6           0       -0.571693    3.246561    0.724358
     28          1           0       -1.368870    3.910279    0.386296
     29          1           0       -0.448471    3.344090    1.810629
     30          1           0        0.364649    3.534451    0.228923
     31          6           0        4.311755   -0.809690   -0.744595
     32          1           0        4.813589   -0.562904    0.201921
     33          1           0        4.054018   -1.878380   -0.741292
     34          1           0        4.988795   -0.604328   -1.575924
 ---------------------------------------------------------------------

 SCF Done:  E(RB3LYP) =  -768.331533119     A.U. after    1 cycles

 The electronic state is 1-A.
 Alpha  occ. eigenvalues --  -19.32160 -19.21963 -19.19704 -19.19281 -19.18080
 Alpha  occ. eigenvalues --  -10.39069 -10.31493 -10.31469 -10.29498 -10.29376
 Alpha  occ. eigenvalues --  -10.27639 -10.26374 -10.25543 -10.25343 -10.24529
 Alpha  occ. eigenvalues --   -1.20861  -1.09914  -1.08185  -1.07194  -1.06490
 Alpha  occ. eigenvalues --   -0.86734  -0.85316  -0.77327  -0.74524  -0.73868
 Alpha  occ. eigenvalues --   -0.71131  -0.69236  -0.68305  -0.66135  -0.61431
 Alpha  occ. eigenvalues --   -0.59065  -0.58413  -0.56616  -0.53968  -0.53707
 Alpha  occ. eigenvalues --   -0.52961  -0.51099  -0.50658  -0.50085  -0.49466
 Alpha  occ. eigenvalues --   -0.48183  -0.47662  -0.47266  -0.45987  -0.45597
 Alpha  occ. eigenvalues --   -0.44667  -0.43111  -0.41959  -0.41194  -0.40368
 Alpha  occ. eigenvalues --   -0.39717  -0.37838  -0.36287  -0.35570  -0.35123
 Alpha  occ. eigenvalues --   -0.32382  -0.30513  -0.29456  -0.28644
 Alpha virt. eigenvalues --   -0.14348   0.00988   0.03623   0.04809   0.06588
 Alpha virt. eigenvalues --    0.07184   0.07355   0.08529   0.09538   0.10413
 Alpha virt. eigenvalues --    0.11669   0.11789   0.12057   0.12603   0.13105

 Mulliken charges:
               1
     1  C    0.117892
     2  C    0.042155
     3  C    0.303379
     4  C    0.054465
     5  C    0.062807
     6  H    0.269824
     7  H    0.234447
     8  H    0.196722
     9  H    0.232429
    10  H    0.188133
    11  O   -0.305085
    12  O   -0.456896
    13  O   -0.493489
    14  O   -0.480102
    15  C   -0.025325
    16  H    0.177312
    17  H    0.172687
    18  O   -0.478929
    19  C   -0.234343
    20  H    0.176584
    21  H    0.182938
    22  H    0.200520
    23  C   -0.224110
    24  H    0.169725
    25  H    0.187551
    26  H    0.163176
    27  C   -0.225345
    28  H    0.188514
    29  H    0.166641
    30  H    0.161043
    31  C   -0.211400
    32  H    0.154547
    33  H    0.153176
    34  H    0.178357
 Sum of Mulliken charges =   1.00000

 Dipole moment (field-independent basis, Debye):
    X=             -1.4573    Y=             -2.0309    Z=              0.0547  Tot=              2.5002
 Quadrupole moment (field-independent basis, Debye-Ang):
   XX=            -64.1215   YY=            -73.2531   ZZ=            -69.6283
   XY=              5.6796   XZ=              8.4112   YZ=              5.6795

  Exact polarizability: 168.753   4.969 134.133   4.624   0.783 134.738
 Approx polarizability: 183.533   4.319 153.182   0.823   0.029 153.929

                      1                      2                      3
                      A                      A                      A
 Frequencies --     43.0608                55.6531                71.6571
 Red. masses --      3.2243                 3.4812                 3.0063
 Frc consts  --      0.0035                 0.0064                 0.0091
 IR Inten    --      1.6165                 2.5300                 2.1278

                      4                      5                      6
                      A                      A                      A
 Frequencies --     79.8859                89.7557               100.5329
 Red. masses --      2.3876                 2.7573                 2.2343
 Frc consts  --      0.0090                 0.0131                 0.0133
 IR Inten    --      4.1248                 5.1754                 2.5311

                      7                      8                      9
                      A                      A                      A
 Frequencies --    110.2231               120.1663               126.1798
 Red. masses --      2.4017                 2.3225                 2.9889
 Frc consts  --      0.0172                 0.0198                 0.0280
 IR Inten    --      6.0936                10.2960                 3.9126

                     10                     11                     12
                      A                      A                      A
 Frequencies --    153.1402               165.7158               180.1747
 Red. masses --      1.6697                 1.3555                 1.6382
 Frc consts  --      0.0231                 0.0219                 0.0313
 IR Inten    --      1.7061                 2.5618                 2.8323

                     13                     14                     15
                      A                      A                      A
 Frequencies --    197.5854               234.0346               249.6245
 Red. masses --      1.8229                 1.4668                 2.6133
 Frc consts  --      0.0419                 0.0473                 0.0959
 IR Inten    --      7.2754                11.5879                 1.3424

                     16                     17                     18
                      A                      A                      A
 Frequencies --    281.1666               302.5399               334.1058
 Red. masses --      3.7359                 4.8451                 4.1213
 Frc consts  --      0.1740                 0.2613                 0.2711
 IR Inten    --      8.6261                14.2904                18.1053

                     19                     20                     21
                      A                      A                      A
 Frequencies --    352.6618               364.2688               386.9708
 Red. masses --      3.4552                 4.7296                 4.6197
 Frc consts  --      0.2532                 0.3698                 0.4076
 IR Inten    --      1.1829                 0.6557                 9.8086

                     22                     23                     24
                      A                      A                      A
 Frequencies --    420.3919               482.3000               510.3777
 Red. masses --      3.6259                 4.2234                 3.6311
 Frc consts  --      0.3776                 0.5788                 0.5573
 IR Inten    --      7.9100                 1.8726                22.4434

                     25                     26                     27
                      A                      A                      A
 Frequencies --    577.0961               601.4046               639.5653
 Red. masses --      4.6231                 3.4175                 5.0767
 Frc consts  --      0.9071                 0.7283                 1.2235
 IR Inten    --     12.9377                38.1190                29.9989

                     28                     29                     30
                      A                      A                      A
 Frequencies --    696.0775               853.6554               903.0355
 Red. masses --      4.2443                 2.3611                 2.7312
 Frc consts  --      1.2116                 1.0138                 1.3122
 IR Inten    --     46.1414                10.4764                18.3770

                     31                     32                     33
                      A                      A                      A
 Frequencies --    916.5146               947.4846               968.6961
 Red. masses --      3.7734                 3.6375                 3.4173
 Frc consts  --      1.8675                 1.9240                 1.8893
 IR Inten    --     35.6366                39.6005                23.8314

                     34                     35                     36
                      A                      A                      A
 Frequencies --    971.8457              1020.4599              1032.0492
 Red. masses --      2.9700                 2.9827                 2.8251
 Frc consts  --      1.6527                 1.8300                 1.7729
 IR Inten    --     48.0219                10.7221                 7.8483

                     37                     38                     39
                      A                      A                      A
 Frequencies --   1047.9973              1074.3532              1111.8666
 Red. masses --      3.5377                 2.3676                 4.7734
 Frc consts  --      2.2893                 1.6101                 3.4768
 IR Inten    --     17.3577                44.3111               162.8926

                     40                     41                     42
                      A                      A                      A
 Frequencies --   1124.5612              1134.9243              1143.6554
 Red. masses --      3.6510                 2.5728                 1.5353
 Frc consts  --      2.7204                 1.9525                 1.1831
 IR Inten    --    135.9812                54.0154                16.9452

                     43                     44                     45
                      A                      A                      A
 Frequencies --   1148.3860              1160.9961              1185.5130
 Red. masses --      4.9071                 4.2913                 1.2701
 Frc consts  --      3.8129                 3.4080                 1.0517
 IR Inten    --    364.1547               141.8049                 2.6111

                     46                     47                     48
                      A                      A                      A
 Frequencies --   1190.6894              1193.7974              1194.1235
 Red. masses --      1.2792                 1.3108                 1.2672
 Frc consts  --      1.0685                 1.1007                 1.0646
 IR Inten    --      6.5566                 1.3593                 4.8395

                     49                     50                     51
                      A                      A                      A
 Frequencies --   1213.8792              1217.2237              1231.1017
 Red. masses --      1.4127                 1.5221                 1.6176
 Frc consts  --      1.2264                 1.3287                 1.4445
 IR Inten    --     24.7163                30.3961                51.8167

                     52                     53                     54
                      A                      A                      A
 Frequencies --   1234.0462              1264.9686              1275.0255
 Red. masses --      1.6861                 2.1581                 1.1981
 Frc consts  --      1.5128                 2.0346                 1.1475
 IR Inten    --     19.6206                26.7864                 6.5489

                     55                     56                     57
                      A                      A                      A
 Frequencies --   1321.1371              1326.1852              1351.2585
 Red. masses --      1.2199                 1.2339                 1.2361
 Frc consts  --      1.2545                 1.2786                 1.3298
 IR Inten    --      1.6356                 6.7792                13.2943

                     58                     59                     60
                      A                      A                      A
 Frequencies --   1352.4660              1373.9104              1391.9856
 Red. masses --      1.4470                 1.3173                 1.5386
 Frc consts  --      1.5594                 1.4650                 1.7564
 IR Inten    --     22.3649                46.1666                28.5542

                     61                     62                     63
                      A                      A                      A
 Frequencies --   1420.2598              1437.1058              1446.1131
 Red. masses --      1.4115                 1.3476                 1.3753
 Frc consts  --      1.6775                 1.6398                 1.6946
 IR Inten    --     22.6880                14.9947                57.0207

                     64                     65                     66
                      A                      A                      A
 Frequencies --   1492.2082              1500.5748              1501.1883
 Red. masses --      1.1146                 1.1206                 1.1454
 Frc consts  --      1.4623                 1.4866                 1.5208
 IR Inten    --     11.9621                 0.6137                 0.8848

                     67                     68                     69
                      A                      A                      A
 Frequencies --   1502.6445              1509.9781              1512.2617
 Red. masses --      1.1265                 1.0468                 1.0515
 Frc consts  --      1.4986                 1.4062                 1.4168
 IR Inten    --      1.4562                 9.8853                 9.8870

                     70                     71                     72
                      A                      A                      A
 Frequencies --   1514.0095              1514.7386              1524.2863
 Red. masses --      1.0502                 1.0495                 1.0631
 Frc consts  --      1.4184                 1.4188                 1.4553
 IR Inten    --     13.4574                 9.4606                29.8965

                     73                     74                     75
                      A                      A                      A
 Frequencies --   1524.5918              1527.0242              1533.3069
 Red. masses --      1.0666                 1.0763                 1.0686
 Frc consts  --      1.4607                 1.4787                 1.4802
 IR Inten    --      8.8131                20.8840                10.7215

                     76                     77                     78
                      A                      A                      A
 Frequencies --   1542.8441              1647.7791              3002.3155
 Red. masses --      1.0954                 5.7274                 1.0650
 Frc consts  --      1.5362                 9.1624                 5.6563
 IR Inten    --      6.6665               333.0966                37.0862

                     79                     80                     81
                      A                      A                      A
 Frequencies --   3017.2159              3032.7653              3039.7519
 Red. masses --      1.0373                 1.0345                 1.0339
 Frc consts  --      5.5636                 5.6061                 5.6284
 IR Inten    --     63.2311                54.0147                57.3481

                     82                     83                     84
                      A                      A                      A
 Frequencies --   3046.6340              3055.8109              3060.4810
 Red. masses --      1.0336                 1.0831                 1.0821
 Frc consts  --      5.6523                 5.9589                 5.9719
 IR Inten    --     40.5123                20.3132                 3.9953

                     85                     86                     87
                      A                      A                      A
 Frequencies --   3068.0624              3075.7504              3085.3574
 Red. masses --      1.1021                 1.0983                 1.0860
 Frc consts  --      6.1122                 6.1216                 6.0913
 IR Inten    --     90.2355                 2.0860                19.7874

                     88                     89                     90
                      A                      A                      A
 Frequencies --   3093.0008              3102.4449              3115.6675
 Red. masses --      1.1067                 1.1069                 1.1078
 Frc consts  --      6.2377                 6.2769                 6.3358
 IR Inten    --     53.7374                45.7880                32.4661

                     91                     92                     93
                      A                      A                      A
 Frequencies --   3157.2991              3157.8416              3168.0454
 Red. masses --      1.0875                 1.0989                 1.1006
 Frc consts  --      6.3873                 6.4564                 6.5082
 IR Inten    --      4.2594                27.2585                22.4107

                     94                     95                     96
                      A                      A                      A
 Frequencies --   3170.0059              3183.5704              3203.7082
 Red. masses --      1.1014                 1.1028                 1.0930
 Frc consts  --      6.5213                 6.5852                 6.6095
 IR Inten    --     19.9616                13.9720                 0.9153

 - Thermochemistry -
 -------------------
 Temperature   298.150 Kelvin.  Pressure   1.00000 Atm.
 Atom     1 has atomic number  6 and mass  12.00000

 Molecular mass:   219.12325 amu.
 Principal axes and moments of inertia in atomic units:
                           1         2         3
     Eigenvalues --  2538.270264559.674104656.76205
           X            0.99991  -0.00014   0.01325
           Y           -0.00206   0.98614   0.16591
           Z           -0.01309  -0.16592   0.98605
 This molecule is an asymmetric top.
 Rotational symmetry number  1.
 Warning -- assumption of classical behavior for rotation
           may cause significant error
 Rotational temperatures (Kelvin)      0.03412     0.01900     0.01860
 Rotational constants (GHZ):           0.71101     0.39580     0.38755
 Zero-point vibrational energy     773330.4 (Joules/Mol)
                                  184.83041 (Kcal/Mol)
 Warning -- explicit consideration of  26 degrees of freedom as
           vibrations may cause significant error
 Vibrational temperatures:     61.95    80.07   103.10   114.94   129.14
          (Kelvin)            144.64   158.59   172.89   181.54   220.33
                              238.43   259.23   284.28   336.72   359.15
                              404.54   435.29   480.70   507.40   524.10
                              556.76   604.85   693.92   734.32   830.31
                              865.29   920.19  1001.50  1228.22  1299.27
                             1318.66  1363.22  1393.74  1398.27  1468.21
                             1484.89  1507.83  1545.75  1599.73  1617.99
                             1632.90  1645.47  1652.27  1670.41  1705.69
                             1713.14  1717.61  1718.08  1746.50  1751.31
                             1771.28  1775.52  1820.01  1834.48  1900.82
                             1908.08  1944.16  1945.90  1976.75  2002.76
                             2043.44  2067.67  2080.63  2146.95  2158.99
                             2159.88  2161.97  2172.52  2175.81  2178.32
                             2179.37  2193.11  2193.55  2197.05  2206.09
                             2219.81  2370.79  4319.66  4341.10  4363.47
                             4373.52  4383.43  4396.63  4403.35  4414.26
                             4425.32  4439.14  4450.14  4463.73  4482.75
                             4542.65  4543.43  4558.11  4560.93  4580.45
                             4609.42

 Zero-point correction=                           0.294546 (Hartree/Particle)
 Thermal correction to Energy=                    0.312048
 Thermal correction to Enthalpy=                  0.312992
 Thermal correction to Gibbs Free Energy=         0.248754
 Sum of electronic and zero-point Energies=           -768.036987
 Sum of electronic and thermal Energies=              -768.019485
 Sum of electronic and thermal Enthalpies=            -768.018541
 Sum of electronic and thermal Free Energies=         -768.082779

                     E (Thermal)             CV                S
                      KCal/Mol        Cal/Mol-Kelvin    Cal/Mol-Kelvin
 Total                  195.813             61.592            135.199
 Electronic               0.000              0.000              0.000
 Translational            0.889              2.981             42.056
 Rotational               0.889              2.981             32.355
 Vibrational            194.035             55.630             60.788
 Vibration     1          0.595              1.980              5.113
 Vibration     2          0.596              1.975              4.606
 Vibration     3          0.598              1.968              4.107
 Vibration     4          0.600              1.963              3.894
 Vibration     5          0.602              1.956              3.665
 Vibration     6          0.604              1.949              3.444
 Vibration     7          0.606              1.941              3.265
 Vibration     8          0.609              1.932              3.098
 Vibration     9          0.611              1.927              3.003
 Vibration    10          0.619              1.899              2.633
 Vibration    11          0.624              1.885              2.484
 Vibration    12          0.629              1.867              2.327
 Vibration    13          0.637              1.843              2.155
 Vibration    14          0.654              1.789              1.848
 Vibration    15          0.662              1.763              1.733
 Vibration    16          0.681              1.708              1.527
 Vibration    17          0.694              1.669              1.403
 Vibration    18          0.716              1.607              1.240
 Vibration    19          0.729              1.570              1.154
 Vibration    20          0.738              1.546              1.104
 Vibration    21          0.755              1.498              1.012
 Vibration    22          0.783              1.426              0.891
 Vibration    23          0.839              1.289              0.704
 Vibration    24          0.866              1.227              0.633
 Vibration    25          0.934              1.081              0.491
 Vibration    26          0.960              1.029              0.447

 Optimization completed.
    -- Stationary point found.
 Normal termination of Gaussian 16 at Sat May 25 18:50:06 2019.
