 Gaussian 16, Revision A.03,
 Gaussian 16:  ES64L-G16RevA.03 25-Dec-2016

 -------------------------------------------------------------------
 #p b3lyp 6-31g* opt freq=noraman scrf=(pcm,solvent=tetrahydrofuran)
 -------------------------------------------------------------------

 -----
 title
 -----
 Symbolic Z-matrix:
 Charge =  1 Multiplicity = 1

 SCF Done:  E(RB3LYP) =  -768.324888662     A.U. after   14 cycles
 Optimization completed.
    -- Stationary point found.
 Normal termination of Gaussian 16 at Fri May 24 08:35:05 2019.

 --------------------------------------------------------------------
 #P Geom=AllCheck Guess=TCheck SCRF=Check GenChk RB3LYP/6-31G(d) Freq
 --------------------------------------------------------------------

 Structure from the checkpoint file:  "/scratch/Gau-193013.chk"
 -----
 title
 -----
 Charge =  1 Multiplicity = 1

                         Standard orientation:
 ---------------------------------------------------------------------
 Center     Atomic      Atomic             Coordinates (Angstroms)
 Number     Number       Type             X           Y           Z
 ---------------------------------------------------------------------
      1          6           0        1.169089    0.893525    0.212215
      2          6           0        2.013936   -0.365935   -0.041981
      3          6           0        1.551626   -0.873377   -1.387598
      4          6           0       -0.716338   -0.682890   -0.588170
      5          6           0       -0.345698    0.563571    0.242927
      6          1           0        2.207763   -1.158038   -2.210971
      7          1           0        3.077913   -0.116441   -0.075217
      8          1           0        1.462997    1.335631    1.172261
      9          1           0       -0.711916   -1.551444    0.070136
     10          1           0       -0.884447    1.426014   -0.168939
     11          8           0        0.329207   -1.031973   -1.621325
     12          8           0        1.711404   -1.363777    0.908033
     13          8           0        1.492702    1.719583   -0.893895
     14          8           0       -0.803587    0.268070    1.547591
     15          6           0       -2.007638   -0.545662   -1.411248
     16          1           0       -2.250519   -1.510156   -1.878712
     17          1           0       -1.842542    0.192577   -2.202648
     18          8           0       -3.064401   -0.063384   -0.619691
     19          6           0        2.780309   -2.283978    1.191438
     20          1           0        2.425483   -2.895992    2.021150
     21          1           0        3.002603   -2.927997    0.334020
     22          1           0        3.683067   -1.740419    1.491111
     23          6           0        1.321011    3.121359   -0.675686
     24          1           0        1.967386    3.466989    0.140862
     25          1           0        1.610690    3.614412   -1.604836
     26          1           0        0.278995    3.374073   -0.444038
     27          6           0       -1.334635    1.395000    2.245634
     28          1           0       -2.197058    1.812193    1.710885
     29          1           0       -1.652949    1.027148    3.222573
     30          1           0       -0.579366    2.179141    2.387287
     31          6           0       -3.665832   -1.041164    0.230741
     32          1           0       -3.967124   -1.928056   -0.342738
     33          1           0       -4.553590   -0.570364    0.657614
     34          1           0       -2.994963   -1.340123    1.044875
 ---------------------------------------------------------------------

 SCF Done:  E(RB3LYP) =  -768.324888662     A.U. after    1 cycles

 The electronic state is 1-A.
 Alpha  occ. eigenvalues --  -19.32991 -19.21676 -19.19768 -19.18843 -19.18458
 Alpha  occ. eigenvalues --  -10.39583 -10.31357 -10.31279 -10.29204 -10.28968
 Alpha  occ. eigenvalues --  -10.27437 -10.26306 -10.25534 -10.24857 -10.24425
 Alpha  occ. eigenvalues --   -1.21743  -1.09720  -1.07951  -1.07024  -1.06259
 Alpha  occ. eigenvalues --   -0.86575  -0.85330  -0.76311  -0.74687  -0.73955
 Alpha  occ. eigenvalues --   -0.71274  -0.68929  -0.67644  -0.65918  -0.61031
 Alpha  occ. eigenvalues --   -0.60525  -0.58407  -0.57066  -0.54320  -0.53217
 Alpha  occ. eigenvalues --   -0.51751  -0.50994  -0.50696  -0.49936  -0.49643
 Alpha  occ. eigenvalues --   -0.48148  -0.47684  -0.46676  -0.46023  -0.45856
 Alpha  occ. eigenvalues --   -0.43706  -0.43350  -0.42003  -0.40849  -0.40493
 Alpha  occ. eigenvalues --   -0.39361  -0.37441  -0.36397  -0.35665  -0.34275
 Alpha  occ. eigenvalues --   -0.32224  -0.31298  -0.29253  -0.28060
 Alpha virt. eigenvalues --   -0.15514   0.00199   0.04510   0.05556   0.06351
 Alpha virt. eigenvalues --    0.07129   0.08711   0.09443   0.10643   0.10856
 Alpha virt. eigenvalues --    0.11144   0.11848   0.12227   0.12732   0.13283

 Mulliken charges:
               1
     1  C    0.078862
     2  C    0.044504
     3  C    0.309412
     4  C    0.046742
     5  C    0.123175
     6  H    0.279126
     7  H    0.214571
     8  H    0.195837
     9  H    0.247383
    10  H    0.188155
    11  O   -0.301749
    12  O   -0.468684
    13  O   -0.497605
    14  O   -0.483399
    15  C   -0.051419
    16  H    0.174456
    17  H    0.187909
    18  O   -0.465612
    19  C   -0.229026
    20  H    0.199070
    21  H    0.174336
    22  H    0.179270
    23  C   -0.223065
    24  H    0.169035
    25  H    0.187791
    26  H    0.165567
    27  C   -0.225444
    28  H    0.167441
    29  H    0.182736
    30  H    0.157647
    31  C   -0.225290
    32  H    0.156876
    33  H    0.179147
    34  H    0.162242
 Sum of Mulliken charges =   1.00000

 Dipole moment (field-independent basis, Debye):
    X=              5.0777    Y=             -1.7615    Z=             -1.8785  Tot=              5.6934
 Quadrupole moment (field-independent basis, Debye-Ang):
   XX=            -62.2530   YY=            -66.6833   ZZ=            -77.4032
   XY=             -3.3103   XZ=             -4.6939   YZ=              5.1733

  Exact polarizability: 154.640  -1.802 137.759  -5.400  -0.612 136.415
 Approx polarizability: 166.444  -1.166 153.718  -6.447  -2.510 161.840

                      1                      2                      3
                      A                      A                      A
 Frequencies --     42.5807                62.5729                66.5067
 Red. masses --      3.8292                 3.0507                 2.3409
 Frc consts  --      0.0041                 0.0070                 0.0061
 IR Inten    --      0.7504                 3.2952                 1.6805

                      4                      5                      6
                      A                      A                      A
 Frequencies --     85.3147                88.9020               102.4435
 Red. masses --      3.0393                 2.7602                 2.3945
 Frc consts  --      0.0130                 0.0129                 0.0148
 IR Inten    --      2.5281                 6.6426                 3.8309

                      7                      8                      9
                      A                      A                      A
 Frequencies --    122.4424               129.7130               147.7028
 Red. masses --      2.7553                 2.0450                 1.8859
 Frc consts  --      0.0243                 0.0203                 0.0242
 IR Inten    --      9.8702                 2.4695                 0.9740

                     10                     11                     12
                      A                      A                      A
 Frequencies --    161.4789               186.4475               205.8842
 Red. masses --      1.9462                 1.7581                 1.8968
 Frc consts  --      0.0299                 0.0360                 0.0474
 IR Inten    --      2.4661                 3.0890                 8.0113

                     13                     14                     15
                      A                      A                      A
 Frequencies --    220.3932               244.0968               256.8230
 Red. masses --      1.8060                 3.8909                 1.2890
 Frc consts  --      0.0517                 0.1366                 0.0501
 IR Inten    --      3.4958                 4.0989                 3.3619

                     16                     17                     18
                      A                      A                      A
 Frequencies --    286.2950               306.7157               318.0962
 Red. masses --      3.1424                 3.5445                 3.7397
 Frc consts  --      0.1518                 0.1965                 0.2230
 IR Inten    --     27.7736                 4.9065                 7.2684

                     19                     20                     21
                      A                      A                      A
 Frequencies --    368.6728               380.6625               404.2490
 Red. masses --      3.5180                 3.5304                 4.6437
 Frc consts  --      0.2817                 0.3014                 0.4471
 IR Inten    --     15.5154                18.1538                27.6563

                     22                     23                     24
                      A                      A                      A
 Frequencies --    433.3496               471.5585               483.8112
 Red. masses --      2.8125                 4.2363                 3.5209
 Frc consts  --      0.3112                 0.5550                 0.4856
 IR Inten    --      5.3282                 7.2698                 5.5572

                     25                     26                     27
                      A                      A                      A
 Frequencies --    514.4662               559.3487               603.6149
 Red. masses --      3.7811                 4.9079                 4.3443
 Frc consts  --      0.5896                 0.9047                 0.9326
 IR Inten    --     13.3326                18.5880                24.3189

                     28                     29                     30
                      A                      A                      A
 Frequencies --    797.6396               859.1061               881.9009
 Red. masses --      6.1935                 3.5594                 2.4272
 Frc consts  --      2.3217                 1.5478                 1.1122
 IR Inten    --     51.6024                53.4357                 6.0956

                     31                     32                     33
                      A                      A                      A
 Frequencies --    898.9594               936.6893               944.4352
 Red. masses --      3.6797                 3.0895                 5.1960
 Frc consts  --      1.7520                 1.5971                 2.7306
 IR Inten    --     13.3155                44.2282                26.3898

                     34                     35                     36
                      A                      A                      A
 Frequencies --    967.8314               990.1250              1024.3781
 Red. masses --      2.5228                 3.6976                 2.9329
 Frc consts  --      1.3923                 2.1357                 1.8133
 IR Inten    --     33.3421                13.5367                44.0254

                     37                     38                     39
                      A                      A                      A
 Frequencies --   1053.1616              1087.8525              1110.0915
 Red. masses --      3.0539                 2.1030                 2.4606
 Frc consts  --      1.9957                 1.4663                 1.7865
 IR Inten    --     12.7980                35.1359                 0.1927

                     40                     41                     42
                      A                      A                      A
 Frequencies --   1119.6528              1135.4708              1144.9328
 Red. masses --      3.8521                 5.3506                 4.4635
 Frc consts  --      2.8452                 4.0645                 3.4474
 IR Inten    --     81.5119               301.1458               220.3448

                     43                     44                     45
                      A                      A                      A
 Frequencies --   1150.0816              1160.1790              1187.9237
 Red. masses --      2.7580                 2.9024                 1.2688
 Frc consts  --      2.1493                 2.3018                 1.0549
 IR Inten    --     79.0370                53.6372                 1.9432

                     46                     47                     48
                      A                      A                      A
 Frequencies --   1188.7203              1188.9019              1191.1249
 Red. masses --      1.3089                 1.2622                 1.2927
 Frc consts  --      1.0897                 1.0512                 1.0806
 IR Inten    --      8.8382                 4.5755                 0.6130

                     49                     50                     51
                      A                      A                      A
 Frequencies --   1218.2769              1223.2598              1228.9181
 Red. masses --      1.4997                 1.5776                 1.6138
 Frc consts  --      1.3115                 1.3909                 1.4360
 IR Inten    --     30.0935                28.8736               105.7598

                     52                     53                     54
                      A                      A                      A
 Frequencies --   1240.7171              1272.8513              1302.1494
 Red. masses --      1.6516                 1.7016                 1.3774
 Frc consts  --      1.4980                 1.6242                 1.3760
 IR Inten    --      2.4024                12.5337                12.6424

                     55                     56                     57
                      A                      A                      A
 Frequencies --   1322.7181              1330.4532              1349.7369
 Red. masses --      1.2033                 1.2338                 1.1997
 Frc consts  --      1.2404                 1.2868                 1.2877
 IR Inten    --     12.2435                20.4524                10.0207

                     58                     59                     60
                      A                      A                      A
 Frequencies --   1358.1034              1370.6725              1398.2191
 Red. masses --      1.2128                 1.2930                 1.4267
 Frc consts  --      1.3180                 1.4312                 1.6434
 IR Inten    --      4.4802                 9.3704                30.3117

                     61                     62                     63
                      A                      A                      A
 Frequencies --   1415.2502              1422.6129              1436.9674
 Red. masses --      1.3870                 1.3524                 1.3260
 Frc consts  --      1.6368                 1.6126                 1.6132
 IR Inten    --      5.5622                 8.9892                35.5668

                     64                     65                     66
                      A                      A                      A
 Frequencies --   1496.0874              1497.3191              1499.0785
 Red. masses --      1.1093                 1.1223                 1.1175
 Frc consts  --      1.4629                 1.4825                 1.4797
 IR Inten    --      4.0909                 3.0460                 1.6043

                     67                     68                     69
                      A                      A                      A
 Frequencies --   1501.0894              1515.8557              1517.3944
 Red. masses --      1.1157                 1.0704                 1.0593
 Frc consts  --      1.4811                 1.4491                 1.4370
 IR Inten    --      0.8736                 8.1884                 8.7382

                     70                     71                     72
                      A                      A                      A
 Frequencies --   1519.3648              1524.3120              1525.9086
 Red. masses --      1.0546                 1.0680                 1.0870
 Frc consts  --      1.4344                 1.4621                 1.4912
 IR Inten    --     12.9299                21.5656                 8.9663

                     73                     74                     75
                      A                      A                      A
 Frequencies --   1528.5945              1529.6987              1531.9496
 Red. masses --      1.0699                 1.0734                 1.0496
 Frc consts  --      1.4729                 1.4798                 1.4513
 IR Inten    --     14.2259                 7.0986                13.3240

                     76                     77                     78
                      A                      A                      A
 Frequencies --   1534.2696              1647.9935              3031.8523
 Red. masses --      1.0482                 6.6728                 1.0355
 Frc consts  --      1.4538                10.6775                 5.6082
 IR Inten    --      0.6873               181.1231                52.0439

                     79                     80                     81
                      A                      A                      A
 Frequencies --   3032.3896              3039.1739              3041.3188
 Red. masses --      1.0344                 1.0342                 1.0621
 Frc consts  --      5.6040                 5.6280                 5.7882
 IR Inten    --     36.5973                72.3349                43.9321

                     82                     83                     84
                      A                      A                      A
 Frequencies --   3056.5041              3064.9994              3073.0052
 Red. masses --      1.0321                 1.0833                 1.0860
 Frc consts  --      5.6809                 5.9958                 6.0424
 IR Inten    --     61.7314                19.4727                13.4968

                     85                     86                     87
                      A                      A                      A
 Frequencies --   3095.3751              3097.6675              3101.8470
 Red. masses --      1.1064                 1.1054                 1.1064
 Frc consts  --      6.2460                 6.2495                 6.2720
 IR Inten    --     74.0161                33.0675                38.9977

                     88                     89                     90
                      A                      A                      A
 Frequencies --   3112.4504              3117.1315              3128.9553
 Red. masses --      1.1023                 1.0901                 1.1058
 Frc consts  --      6.2913                 6.2408                 6.3784
 IR Inten    --     20.7280                20.8623                25.2894

                     91                     92                     93
                      A                      A                      A
 Frequencies --   3157.7742              3163.8179              3165.0102
 Red. masses --      1.1007                 1.1008                 1.0876
 Frc consts  --      6.4665                 6.4922                 6.4189
 IR Inten    --     25.4787                24.1246                 3.5247

                     94                     95                     96
                      A                      A                      A
 Frequencies --   3169.3401              3182.1847              3200.2366
 Red. masses --      1.1015                 1.1034                 1.0953
 Frc consts  --      6.5189                 6.5834                 6.6091
 IR Inten    --     20.7578                11.6411                 0.6253

 - Thermochemistry -
 -------------------
 Temperature   298.150 Kelvin.  Pressure   1.00000 Atm.
 Atom     1 has atomic number  6 and mass  12.00000

 Molecular mass:   219.12325 amu.
 Principal axes and moments of inertia in atomic units:
                           1         2         3
     Eigenvalues --  2570.077373927.445534402.58100
           X            1.00000   0.00152  -0.00256
           Y           -0.00151   0.99999   0.00387
           Z            0.00256  -0.00387   0.99999
 This molecule is an asymmetric top.
 Rotational symmetry number  1.
 Warning -- assumption of classical behavior for rotation
           may cause significant error
 Rotational temperatures (Kelvin)      0.03370     0.02205     0.01967
 Rotational constants (GHZ):           0.70221     0.45952     0.40993
 Zero-point vibrational energy     774965.8 (Joules/Mol)
                                  185.22126 (Kcal/Mol)
 Warning -- explicit consideration of  27 degrees of freedom as
           vibrations may cause significant error
 Vibrational temperatures:     61.26    90.03    95.69   122.75   127.91
          (Kelvin)            147.39   176.17   186.63   212.51   232.33
                              268.26   296.22   317.10   351.20   369.51
                              411.91   441.30   457.67   530.44   547.69
                              581.62   623.49   678.47   696.10   740.20
                              804.78   868.47  1147.63  1236.06  1268.86
                             1293.40  1347.69  1358.83  1392.49  1424.57
                             1473.85  1515.26  1565.18  1597.17  1610.93
                             1633.69  1647.30  1654.71  1669.24  1709.16
                             1710.30  1710.56  1713.76  1752.83  1760.00
                             1768.14  1785.12  1831.35  1873.50  1903.10
                             1914.23  1941.97  1954.01  1972.09  2011.73
                             2036.23  2046.82  2067.48  2152.54  2154.31
                             2156.84  2159.73  2180.98  2183.19  2186.03
                             2193.14  2195.44  2199.31  2200.90  2204.13
                             2207.47  2371.10  4362.16  4362.93  4372.69
                             4375.78  4397.63  4409.85  4421.37  4453.55
                             4456.85  4462.87  4478.12  4484.86  4501.87
                             4543.33  4552.03  4553.74  4559.97  4578.45
                             4604.43

 Zero-point correction=                           0.295169 (Hartree/Particle)
 Thermal correction to Energy=                    0.312463
 Thermal correction to Enthalpy=                  0.313407
 Thermal correction to Gibbs Free Energy=         0.250054
 Sum of electronic and zero-point Energies=           -768.029720
 Sum of electronic and thermal Energies=              -768.012426
 Sum of electronic and thermal Enthalpies=            -768.011482
 Sum of electronic and thermal Free Energies=         -768.074834

                     E (Thermal)             CV                S
                      KCal/Mol        Cal/Mol-Kelvin    Cal/Mol-Kelvin
 Total                  196.073             61.594            133.337
 Electronic               0.000              0.000              0.000
 Translational            0.889              2.981             42.056
 Rotational               0.889              2.981             32.163
 Vibrational            194.296             55.632             59.117
 Vibration     1          0.595              1.980              5.135
 Vibration     2          0.597              1.972              4.374
 Vibration     3          0.598              1.970              4.254
 Vibration     4          0.601              1.959              3.765
 Vibration     5          0.602              1.957              3.684
 Vibration     6          0.605              1.947              3.407
 Vibration     7          0.610              1.930              3.061
 Vibration     8          0.612              1.924              2.950
 Vibration     9          0.617              1.905              2.702
 Vibration    10          0.622              1.890              2.532
 Vibration    11          0.632              1.858              2.263
 Vibration    12          0.640              1.832              2.080
 Vibration    13          0.647              1.810              1.956
 Vibration    14          0.659              1.773              1.773
 Vibration    15          0.666              1.751              1.683
 Vibration    16          0.684              1.699              1.496
 Vibration    17          0.697              1.661              1.380
 Vibration    18          0.704              1.639              1.320
 Vibration    19          0.741              1.537              1.085
 Vibration    20          0.750              1.511              1.037
 Vibration    21          0.769              1.461              0.947
 Vibration    22          0.794              1.398              0.848
 Vibration    23          0.829              1.313              0.733
 Vibration    24          0.840              1.286              0.700
 Vibration    25          0.870              1.218              0.623
 Vibration    26          0.915              1.119              0.525
 Vibration    27          0.962              1.024              0.443

 Optimization completed.
    -- Stationary point found.
 Normal termination of Gaussian 16 at Fri May 24 08:54:03 2019.
