 Gaussian 16, Revision A.03,
 Gaussian 16:  ES64L-G16RevA.03 25-Dec-2016

 -------------------------------------------------------------------
 #p b3lyp 6-31g* opt freq=noraman scrf=(pcm,solvent=tetrahydrofuran)
 -------------------------------------------------------------------

 -----
 title
 -----
 Symbolic Z-matrix:
 Charge =  1 Multiplicity = 1

 SCF Done:  E(RB3LYP) =  -768.329136313     A.U. after   14 cycles
 Optimization completed.
    -- Stationary point found.
 Normal termination of Gaussian 16 at Fri May 24 08:39:07 2019.

 --------------------------------------------------------------------
 #P Geom=AllCheck Guess=TCheck SCRF=Check GenChk RB3LYP/6-31G(d) Freq
 --------------------------------------------------------------------

 Structure from the checkpoint file:  "/scratch/Gau-60773.chk"
 -----
 title
 -----
 Charge =  1 Multiplicity = 1

                         Standard orientation:
 ---------------------------------------------------------------------
 Center     Atomic      Atomic             Coordinates (Angstroms)
 Number     Number       Type             X           Y           Z
 ---------------------------------------------------------------------
      1          6           0       -1.066709    0.401142   -0.160358
      2          6           0       -0.850809   -1.139510    0.021984
      3          6           0       -0.098058   -1.625934   -1.158522
      4          6           0        1.353767    0.312915   -1.122696
      5          6           0        0.304031    1.110316   -0.309314
      6          1           0       -0.341295   -2.573221   -1.643688
      7          1           0       -0.160131   -1.283840    0.870406
      8          1           0       -1.613744    0.577372   -1.091986
      9          1           0        1.608763    0.872440   -2.020988
     10          1           0        0.721036    1.271478    0.693413
     11          8           0        0.836526   -0.983636   -1.701618
     12          8           0       -1.978579   -1.916254    0.289467
     13          8           0       -1.883918    0.944669    0.842539
     14          8           0        0.176488    2.340459   -0.992457
     15          6           0        2.599514   -0.076909   -0.349582
     16          1           0        3.100195    0.854351   -0.041937
     17          1           0        3.288862   -0.636500   -0.997947
     18          8           0        2.188242   -0.849264    0.756607
     19          6           0       -3.132186   -1.686504   -0.536647
     20          1           0       -3.848665   -2.458579   -0.255034
     21          1           0       -3.561525   -0.699213   -0.344797
     22          1           0       -2.898511   -1.791191   -1.604579
     23          6           0       -1.536652    0.683186    2.206566
     24          1           0       -1.642850   -0.381562    2.443538
     25          1           0       -0.522639    1.018096    2.452822
     26          1           0       -2.250742    1.253037    2.802512
     27          6           0       -0.226084    3.449299   -0.182558
     28          1           0       -0.141854    4.332037   -0.819090
     29          1           0       -1.257420    3.342951    0.166611
     30          1           0        0.441311    3.561310    0.682769
     31          6           0        3.275684   -1.304883    1.561460
     32          1           0        3.956628   -1.938242    0.978080
     33          1           0        2.840687   -1.888856    2.373841
     34          1           0        3.836843   -0.458373    1.977747
 ---------------------------------------------------------------------

 SCF Done:  E(RB3LYP) =  -768.329136314     A.U. after    1 cycles

 The electronic state is 1-A.
 Alpha  occ. eigenvalues --  -19.32688 -19.20591 -19.19897 -19.19744 -19.18883
 Alpha  occ. eigenvalues --  -10.39342 -10.32172 -10.31480 -10.29864 -10.29628
 Alpha  occ. eigenvalues --  -10.28468 -10.25804 -10.25419 -10.25362 -10.24682
 Alpha  occ. eigenvalues --   -1.21467  -1.09643  -1.07989  -1.07676  -1.06467
 Alpha  occ. eigenvalues --   -0.87208  -0.85583  -0.77825  -0.74945  -0.74646
 Alpha  occ. eigenvalues --   -0.71289  -0.69643  -0.67809  -0.65766  -0.61917
 Alpha  occ. eigenvalues --   -0.59793  -0.58831  -0.56444  -0.54143  -0.54035
 Alpha  occ. eigenvalues --   -0.52625  -0.52086  -0.51260  -0.50413  -0.48862
 Alpha  occ. eigenvalues --   -0.48293  -0.47722  -0.46945  -0.45764  -0.45367
 Alpha  occ. eigenvalues --   -0.43822  -0.43627  -0.43146  -0.41665  -0.40654
 Alpha  occ. eigenvalues --   -0.40016  -0.37041  -0.36590  -0.35667  -0.34840
 Alpha  occ. eigenvalues --   -0.32747  -0.31259  -0.30146  -0.27624
 Alpha virt. eigenvalues --   -0.14891   0.00198   0.04288   0.05279   0.06045
 Alpha virt. eigenvalues --    0.07225   0.07941   0.08898   0.09252   0.10222
 Alpha virt. eigenvalues --    0.10847   0.12215   0.12320   0.13058   0.13485

 Mulliken charges:
               1
     1  C    0.102381
     2  C    0.009340
     3  C    0.285537
     4  C    0.038379
     5  C    0.110330
     6  H    0.279140
     7  H    0.260555
     8  H    0.195135
     9  H    0.250279
    10  H    0.186548
    11  O   -0.304281
    12  O   -0.472466
    13  O   -0.469621
    14  O   -0.495067
    15  C   -0.038861
    16  H    0.191399
    17  H    0.186141
    18  O   -0.490482
    19  C   -0.243199
    20  H    0.195975
    21  H    0.186523
    22  H    0.161373
    23  C   -0.245950
    24  H    0.176183
    25  H    0.167250
    26  H    0.192660
    27  C   -0.223898
    28  H    0.179659
    29  H    0.173034
    30  H    0.156715
    31  C   -0.214096
    32  H    0.164660
    33  H    0.183510
    34  H    0.165218
 Sum of Mulliken charges =   1.00000

 Dipole moment (field-independent basis, Debye):
    X=              2.7574    Y=             -2.4632    Z=             -1.5007  Tot=              3.9903
 Quadrupole moment (field-independent basis, Debye-Ang):
   XX=            -64.8423   YY=            -73.1877   ZZ=            -75.8281
   XY=              1.5011   XZ=              3.5904   YZ=              7.8952

  Exact polarizability: 151.302   4.882 148.492  -7.575   5.691 134.280
 Approx polarizability: 166.378   3.675 167.087 -12.423   4.270 162.471

                      1                      2                      3
                      A                      A                      A
 Frequencies --     37.1407                64.0220                76.3615
 Red. masses --      3.9626                 3.3641                 3.5227
 Frc consts  --      0.0032                 0.0081                 0.0121
 IR Inten    --      0.2611                 0.2970                 0.8916

                      4                      5                      6
                      A                      A                      A
 Frequencies --     89.3824               101.9955               117.0404
 Red. masses --      2.4187                 2.4055                 2.1263
 Frc consts  --      0.0114                 0.0147                 0.0172
 IR Inten    --      7.7522                 0.3777                 5.8001

                      7                      8                      9
                      A                      A                      A
 Frequencies --    127.1000               141.5442               166.3003
 Red. masses --      2.1467                 3.3988                 1.7053
 Frc consts  --      0.0204                 0.0401                 0.0278
 IR Inten    --     10.6593                 7.6693                 1.1518

                     10                     11                     12
                      A                      A                      A
 Frequencies --    181.6392               184.6762               209.7270
 Red. masses --      1.3648                 1.3667                 1.4927
 Frc consts  --      0.0265                 0.0275                 0.0387
 IR Inten    --      2.8516                 0.5239                13.8811

                     13                     14                     15
                      A                      A                      A
 Frequencies --    226.0655               235.4626               264.4912
 Red. masses --      1.9246                 2.7289                 3.3110
 Frc consts  --      0.0580                 0.0891                 0.1365
 IR Inten    --      6.1352                 1.8402                 6.9984

                     16                     17                     18
                      A                      A                      A
 Frequencies --    287.8801               293.3401               329.9521
 Red. masses --      2.9228                 3.4843                 3.6930
 Frc consts  --      0.1427                 0.1766                 0.2369
 IR Inten    --      3.1744                 3.1045                 2.6129

                     19                     20                     21
                      A                      A                      A
 Frequencies --    346.8377               361.2719               393.9698
 Red. masses --      3.6591                 5.0551                 4.4305
 Frc consts  --      0.2593                 0.3887                 0.4052
 IR Inten    --      6.9607                 7.4103                 5.1467

                     22                     23                     24
                      A                      A                      A
 Frequencies --    420.3935               483.3084               534.9657
 Red. masses --      4.0535                 3.6798                 3.9046
 Frc consts  --      0.4221                 0.5064                 0.6584
 IR Inten    --     15.0520                21.2594                 5.5637

                     25                     26                     27
                      A                      A                      A
 Frequencies --    561.6153               593.9008               666.5154
 Red. masses --      4.1739                 3.0622                 4.7947
 Frc consts  --      0.7757                 0.6364                 1.2550
 IR Inten    --     23.5977                23.0241                18.1126

                     28                     29                     30
                      A                      A                      A
 Frequencies --    726.0917               767.8828               835.5896
 Red. masses --      4.5044                 4.2106                 2.6798
 Frc consts  --      1.3992                 1.4628                 1.1024
 IR Inten    --     91.7924                38.8412                25.7466

                     31                     32                     33
                      A                      A                      A
 Frequencies --    916.6914               937.9718               952.4687
 Red. masses --      3.0148                 3.6155                 3.8229
 Frc consts  --      1.4926                 1.8741                 2.0433
 IR Inten    --      4.8281                50.5780                19.0608

                     34                     35                     36
                      A                      A                      A
 Frequencies --    977.6007              1003.3623              1042.5146
 Red. masses --      2.7930                 3.6074                 3.6552
 Frc consts  --      1.5727                 2.1397                 2.3406
 IR Inten    --     10.9436                13.8372                80.2835

                     37                     38                     39
                      A                      A                      A
 Frequencies --   1060.4696              1071.2475              1091.5502
 Red. masses --      2.9957                 3.1803                 2.5875
 Frc consts  --      1.9849                 2.1503                 1.8164
 IR Inten    --     85.6809                55.8780                23.4498

                     40                     41                     42
                      A                      A                      A
 Frequencies --   1121.8152              1136.9456              1157.5188
 Red. masses --      2.7779                 5.4871                 3.3836
 Frc consts  --      2.0597                 4.1790                 2.6711
 IR Inten    --     36.9803               288.7318               159.2245

                     43                     44                     45
                      A                      A                      A
 Frequencies --   1159.8927              1173.0016              1185.9870
 Red. masses --      3.1605                 1.8758                 1.3385
 Frc consts  --      2.5052                 1.5207                 1.1093
 IR Inten    --     83.4281                72.3603                10.4833

                     46                     47                     48
                      A                      A                      A
 Frequencies --   1187.8149              1189.2898              1192.0999
 Red. masses --      1.2783                 1.2722                 1.6271
 Frc consts  --      1.0626                 1.0602                 1.3623
 IR Inten    --      3.5485                 1.0953                63.5298

                     49                     50                     51
                      A                      A                      A
 Frequencies --   1222.7214              1228.5776              1230.7074
 Red. masses --      1.5611                 1.6320                 1.5658
 Frc consts  --      1.3751                 1.4514                 1.3973
 IR Inten    --     24.5546                33.4557                36.9104

                     52                     53                     54
                      A                      A                      A
 Frequencies --   1236.3671              1253.7437              1272.5200
 Red. masses --      1.8114                 1.5559                 1.1248
 Frc consts  --      1.6314                 1.4409                 1.0731
 IR Inten    --     83.5454                30.5774                30.7448

                     55                     56                     57
                      A                      A                      A
 Frequencies --   1303.5009              1319.9131              1330.5503
 Red. masses --      1.2651                 1.2465                 1.3388
 Frc consts  --      1.2665                 1.2795                 1.3965
 IR Inten    --     39.6560                12.0636                 3.7884

                     58                     59                     60
                      A                      A                      A
 Frequencies --   1360.7793              1384.9619              1410.2616
 Red. masses --      1.2122                 1.3126                 1.3783
 Frc consts  --      1.3225                 1.4834                 1.6150
 IR Inten    --     13.4462                19.1910                46.5653

                     61                     62                     63
                      A                      A                      A
 Frequencies --   1416.4614              1432.9486              1457.8540
 Red. masses --      1.4582                 1.3338                 1.1642
 Frc consts  --      1.7238                 1.6136                 1.4578
 IR Inten    --      7.6431                17.4819                25.6277

                     64                     65                     66
                      A                      A                      A
 Frequencies --   1496.1618              1498.4423              1500.6581
 Red. masses --      1.1367                 1.1383                 1.1410
 Frc consts  --      1.4992                 1.5059                 1.5139
 IR Inten    --      1.1418                 4.0548                 1.0614

                     67                     68                     69
                      A                      A                      A
 Frequencies --   1502.8148              1508.8671              1510.2393
 Red. masses --      1.1187                 1.0579                 1.0482
 Frc consts  --      1.4886                 1.4191                 1.4086
 IR Inten    --      1.0424                 9.2643                 9.7843

                     70                     71                     72
                      A                      A                      A
 Frequencies --   1511.2341              1519.3459              1523.6430
 Red. masses --      1.0825                 1.0463                 1.0620
 Frc consts  --      1.4567                 1.4230                 1.4526
 IR Inten    --      5.5793                 5.5023                12.8693

                     73                     74                     75
                      A                      A                      A
 Frequencies --   1528.0933              1534.7937              1535.7410
 Red. masses --      1.0516                 1.0550                 1.0512
 Frc consts  --      1.4468                 1.4642                 1.4608
 IR Inten    --     22.1811                14.4665                26.0889

                     76                     77                     78
                      A                      A                      A
 Frequencies --   1537.8715              1643.3655              3011.9787
 Red. masses --      1.0902                 6.2437                 1.0787
 Frc consts  --      1.5191                 9.9349                 5.7655
 IR Inten    --      3.7442               204.6452                21.4954

                     79                     80                     81
                      A                      A                      A
 Frequencies --   3020.9693              3034.0809              3036.4398
 Red. masses --      1.0568                 1.0346                 1.0393
 Frc consts  --      5.6824                 5.6115                 5.6458
 IR Inten    --     27.5639                64.2890                58.2122

                     82                     83                     84
                      A                      A                      A
 Frequencies --   3039.5531              3047.5664              3056.8115
 Red. masses --      1.0417                 1.0409                 1.0745
 Frc consts  --      5.6706                 5.6959                 5.9155
 IR Inten    --     38.9518                15.9359                33.0999

                     85                     86                     87
                      A                      A                      A
 Frequencies --   3063.1857              3094.9180              3100.2039
 Red. masses --      1.1052                 1.1073                 1.0858
 Frc consts  --      6.1101                 6.2492                 6.1486
 IR Inten    --     42.3991                41.7059                10.7584

                     88                     89                     90
                      A                      A                      A
 Frequencies --   3115.8019              3116.6930              3126.2237
 Red. masses --      1.1069                 1.0973                 1.0964
 Frc consts  --      6.3313                 6.2803                 6.3136
 IR Inten    --     46.0758                36.0690                31.0590

                     91                     92                     93
                      A                      A                      A
 Frequencies --   3164.3151              3168.4553              3170.1016
 Red. masses --      1.1047                 1.1012                 1.1017
 Frc consts  --      6.5171                 6.5134                 6.5232
 IR Inten    --     25.5833                20.4062                19.6243

                     94                     95                     96
                      A                      A                      A
 Frequencies --   3179.9770              3184.1966              3193.3703
 Red. masses --      1.1039                 1.0881                 1.0947
 Frc consts  --      6.5771                 6.4999                 6.5772
 IR Inten    --     15.9477                 0.7654                 2.0191

 - Thermochemistry -
 -------------------
 Temperature   298.150 Kelvin.  Pressure   1.00000 Atm.
 Atom     1 has atomic number  6 and mass  12.00000

 Molecular mass:   219.12325 amu.
 Principal axes and moments of inertia in atomic units:
                           1         2         3
     Eigenvalues --  2804.059873482.798434472.63287
           X            0.99978  -0.00358   0.02063
           Y            0.00334   0.99993   0.01161
           Z           -0.02067  -0.01154   0.99972
 This molecule is an asymmetric top.
 Rotational symmetry number  1.
 Warning -- assumption of classical behavior for rotation
           may cause significant error
 Rotational temperatures (Kelvin)      0.03089     0.02487     0.01937
 Rotational constants (GHZ):           0.64362     0.51819     0.40351
 Zero-point vibrational energy     774717.7 (Joules/Mol)
                                  185.16198 (Kcal/Mol)
 Warning -- explicit consideration of  26 degrees of freedom as
           vibrations may cause significant error
 Vibrational temperatures:     53.44    92.11   109.87   128.60   146.75
          (Kelvin)            168.40   182.87   203.65   239.27   261.34
                              265.71   301.75   325.26   338.78   380.54
                              414.20   422.05   474.73   499.02   519.79
                              566.83   604.85   695.37   769.70   808.04
                              854.49   958.97  1044.68  1104.81  1202.23
                             1318.91  1349.53  1370.39  1406.55  1443.61
                             1499.95  1525.78  1541.29  1570.50  1614.04
                             1635.81  1665.41  1668.83  1687.69  1706.37
                             1709.00  1711.12  1715.17  1759.22  1767.65
                             1770.71  1778.86  1803.86  1830.87  1875.45
                             1899.06  1914.37  1957.86  1992.65  2029.05
                             2037.97  2061.69  2097.53  2152.64  2155.92
                             2159.11  2162.22  2170.92  2172.90  2174.33
                             2186.00  2192.18  2198.59  2208.23  2209.59
                             2212.65  2364.44  4333.57  4346.50  4365.37
                             4368.76  4373.24  4384.77  4398.07  4407.24
                             4452.90  4460.50  4482.94  4484.23  4497.94
                             4552.74  4558.70  4561.07  4575.28  4581.35
                             4594.55

 Zero-point correction=                           0.295074 (Hartree/Particle)
 Thermal correction to Energy=                    0.312180
 Thermal correction to Enthalpy=                  0.313125
 Thermal correction to Gibbs Free Energy=         0.250450
 Sum of electronic and zero-point Energies=           -768.034062
 Sum of electronic and thermal Energies=              -768.016956
 Sum of electronic and thermal Enthalpies=            -768.016012
 Sum of electronic and thermal Free Energies=         -768.078687

                     E (Thermal)             CV                S
                      KCal/Mol        Cal/Mol-Kelvin    Cal/Mol-Kelvin
 Total                  195.896             61.463            131.910
 Electronic               0.000              0.000              0.000
 Translational            0.889              2.981             42.056
 Rotational               0.889              2.981             32.146
 Vibrational            194.119             55.502             57.708
 Vibration     1          0.594              1.982              5.406
 Vibration     2          0.597              1.971              4.329
 Vibration     3          0.599              1.965              3.982
 Vibration     4          0.602              1.957              3.674
 Vibration     5          0.604              1.948              3.416
 Vibration     6          0.608              1.935              3.149
 Vibration     7          0.611              1.926              2.989
 Vibration     8          0.615              1.912              2.783
 Vibration     9          0.624              1.884              2.477
 Vibration    10          0.630              1.865              2.311
 Vibration    11          0.631              1.861              2.281
 Vibration    12          0.642              1.826              2.046
 Vibration    13          0.650              1.801              1.910
 Vibration    14          0.655              1.787              1.837
 Vibration    15          0.671              1.738              1.632
 Vibration    16          0.685              1.696              1.486
 Vibration    17          0.688              1.686              1.455
 Vibration    18          0.713              1.616              1.260
 Vibration    19          0.725              1.582              1.181
 Vibration    20          0.735              1.552              1.117
 Vibration    21          0.761              1.483              0.985
 Vibration    22          0.783              1.426              0.891
 Vibration    23          0.839              1.287              0.701
 Vibration    24          0.890              1.173              0.576
 Vibration    25          0.917              1.114              0.521
 Vibration    26          0.952              1.045              0.460

                           ! Non-Optimized Parameters !
 Normal termination of Gaussian 16 at Fri May 24 09:29:53 2019.
