 Gaussian 16, Revision A.03,
 Gaussian 16:  ES64L-G16RevA.03 25-Dec-2016

 -------------------------------------------------------------------
 #p b3lyp 6-31g* opt freq=noraman scrf=(pcm,solvent=tetrahydrofuran)
 -------------------------------------------------------------------

 -----
 title
 -----
 Symbolic Z-matrix:
 Charge =  1 Multiplicity = 1

 SCF Done:  E(RB3LYP) =  -768.324788065     A.U. after   13 cycles
 SCF Done:  E(RB3LYP) =  -768.324787977     A.U. after    6 cycles
 Optimization completed.
    -- Stationary point found.
 Normal termination of Gaussian 16 at Fri May 24 08:35:52 2019.

 --------------------------------------------------------------------
 #P Geom=AllCheck Guess=TCheck SCRF=Check GenChk RB3LYP/6-31G(d) Freq
 --------------------------------------------------------------------

 Structure from the checkpoint file:  "/scratch/Gau-167785.chk"
 -----
 title
 -----
 Charge =  1 Multiplicity = 1

                         Standard orientation:
 ---------------------------------------------------------------------
 Center     Atomic      Atomic             Coordinates (Angstroms)
 Number     Number       Type             X           Y           Z
 ---------------------------------------------------------------------
      1          6           0        1.013333    1.047924    0.119057
      2          6           0        1.791359    0.062702   -0.774233
      3          6           0        0.794003   -0.434113   -1.793942
      4          6           0       -0.676632   -0.923570    0.046686
      5          6           0       -0.282109    0.419880    0.714208
      6          1           0        0.958575   -0.455720   -2.871730
      7          1           0        2.620312    0.575290   -1.267960
      8          1           0        1.669706    1.384758    0.931643
      9          1           0       -0.087183   -1.754287    0.432706
     10          1           0       -1.091536    1.118840    0.494685
     11          8           0       -0.313948   -0.893004   -1.426848
     12          8           0        2.211602   -1.055414   -0.020081
     13          8           0        0.699533    2.100334   -0.776300
     14          8           0       -0.308073    0.281334    2.118469
     15          6           0       -2.154773   -1.237479    0.088573
     16          1           0       -2.420055   -1.387408    1.147316
     17          1           0       -2.350363   -2.180039   -0.444643
     18          8           0       -2.858217   -0.162035   -0.484629
     19          6           0        3.434946   -1.670488   -0.465464
     20          1           0        3.663405   -2.435772    0.276746
     21          1           0        3.318858   -2.139068   -1.448379
     22          1           0        4.242614   -0.931351   -0.498229
     23          6           0        0.379462    3.344341   -0.151629
     24          1           0       -0.523880    3.272440    0.466864
     25          1           0        1.215324    3.690721    0.470028
     26          1           0        0.203701    4.056353   -0.959420
     27          6           0        0.680895   -0.540360    2.747805
     28          1           0        0.556702   -0.372039    3.818894
     29          1           0        0.528142   -1.606195    2.539510
     30          1           0        1.698298   -0.264963    2.453330
     31          6           0       -4.269556   -0.339612   -0.446771
     32          1           0       -4.709928    0.544088   -0.912226
     33          1           0       -4.573271   -1.235007   -1.006805
     34          1           0       -4.632174   -0.425698    0.587031
 ---------------------------------------------------------------------

 SCF Done:  E(RB3LYP) =  -768.324787977     A.U. after    1 cycles

 The electronic state is 1-A.
 Alpha  occ. eigenvalues --  -19.32910 -19.22069 -19.19495 -19.19137 -19.18296
 Alpha  occ. eigenvalues --  -10.39478 -10.31525 -10.31521 -10.29359 -10.28952
 Alpha  occ. eigenvalues --  -10.27421 -10.26557 -10.25280 -10.25010 -10.24566
 Alpha  occ. eigenvalues --   -1.21643  -1.09935  -1.07894  -1.06896  -1.06437
 Alpha  occ. eigenvalues --   -0.86676  -0.85290  -0.76793  -0.75025  -0.73757
 Alpha  occ. eigenvalues --   -0.71099  -0.69001  -0.68102  -0.66240  -0.61236
 Alpha  occ. eigenvalues --   -0.60045  -0.58492  -0.56992  -0.54240  -0.53343
 Alpha  occ. eigenvalues --   -0.52026  -0.51273  -0.50593  -0.49840  -0.49512
 Alpha  occ. eigenvalues --   -0.48471  -0.47898  -0.46626  -0.46117  -0.45474
 Alpha  occ. eigenvalues --   -0.43971  -0.43163  -0.42007  -0.41775  -0.40792
 Alpha  occ. eigenvalues --   -0.39553  -0.37309  -0.36618  -0.35428  -0.34422
 Alpha  occ. eigenvalues --   -0.32738  -0.31054  -0.28804  -0.28384
 Alpha virt. eigenvalues --   -0.15574   0.00789   0.04213   0.05583   0.06251
 Alpha virt. eigenvalues --    0.06959   0.08267   0.09477   0.10452   0.10681
 Alpha virt. eigenvalues --    0.11195   0.11958   0.12152   0.12722   0.13499

 Mulliken charges:
               1
     1  C    0.075589
     2  C    0.043798
     3  C    0.310826
     4  C    0.024694
     5  C    0.115570
     6  H    0.279919
     7  H    0.217375
     8  H    0.196318
     9  H    0.241072
    10  H    0.212407
    11  O   -0.293430
    12  O   -0.476161
    13  O   -0.497278
    14  O   -0.483039
    15  C   -0.027697
    16  H    0.180462
    17  H    0.174160
    18  O   -0.478737
    19  C   -0.229033
    20  H    0.199197
    21  H    0.176984
    22  H    0.182007
    23  C   -0.224179
    24  H    0.167265
    25  H    0.166719
    26  H    0.186690
    27  C   -0.233678
    28  H    0.185108
    29  H    0.160022
    30  H    0.165924
    31  C   -0.210105
    32  H    0.178066
    33  H    0.155593
    34  H    0.157572
 Sum of Mulliken charges =   1.00000

 Dipole moment (field-independent basis, Debye):
    X=              3.9484    Y=             -2.7968    Z=             -2.9988  Tot=              5.6925
 Quadrupole moment (field-independent basis, Debye-Ang):
   XX=            -57.2860   YY=            -71.7403   ZZ=            -75.5173
   XY=             -0.5188   XZ=             -4.6483   YZ=              1.6271

  Exact polarizability: 154.736  -3.132 137.634  -2.165  -4.149 139.286
 Approx polarizability: 164.978  -1.671 154.460  -2.063  -5.908 165.412

                      1                      2                      3
                      A                      A                      A
 Frequencies --     33.3275                59.3002                72.2603
 Red. masses --      3.7525                 3.2863                 3.1066
 Frc consts  --      0.0025                 0.0068                 0.0096
 IR Inten    --      2.0252                 1.5503                 2.6676

                      4                      5                      6
                      A                      A                      A
 Frequencies --     84.2292                88.2582               106.3814
 Red. masses --      2.0320                 2.3973                 2.3519
 Frc consts  --      0.0085                 0.0110                 0.0157
 IR Inten    --      4.7894                 1.0340                 7.1327

                      7                      8                      9
                      A                      A                      A
 Frequencies --    109.3374               129.9531               143.8060
 Red. masses --      2.2117                 3.1329                 2.0480
 Frc consts  --      0.0156                 0.0312                 0.0250
 IR Inten    --      2.1119                 8.6849                 3.3080

                     10                     11                     12
                      A                      A                      A
 Frequencies --    175.5426               178.7337               184.6367
 Red. masses --      1.8784                 1.3596                 1.4730
 Frc consts  --      0.0341                 0.0256                 0.0296
 IR Inten    --      1.6205                 1.3323                 3.0441

                     13                     14                     15
                      A                      A                      A
 Frequencies --    224.7463               249.9583               254.2331
 Red. masses --      1.4856                 3.5691                 3.1243
 Frc consts  --      0.0442                 0.1314                 0.1190
 IR Inten    --      4.3606                12.2201                 5.7029

                     16                     17                     18
                      A                      A                      A
 Frequencies --    272.1271               283.4590               323.4699
 Red. masses --      2.6089                 3.5216                 3.5851
 Frc consts  --      0.1138                 0.1667                 0.2210
 IR Inten    --      9.0581                18.9576                 3.7379

                     19                     20                     21
                      A                      A                      A
 Frequencies --    339.9727               352.2587               391.7248
 Red. masses --      3.2619                 3.0165                 4.0909
 Frc consts  --      0.2221                 0.2205                 0.3699
 IR Inten    --     12.6738                 3.4661                 8.5745

                     22                     23                     24
                      A                      A                      A
 Frequencies --    435.3458               466.4630               506.4255
 Red. masses --      4.3017                 3.6056                 4.9621
 Frc consts  --      0.4803                 0.4622                 0.7498
 IR Inten    --     11.1747                20.9755                14.4715

                     25                     26                     27
                      A                      A                      A
 Frequencies --    540.8145               591.1250               652.8442
 Red. masses --      4.9760                 4.0438                 4.4645
 Frc consts  --      0.8575                 0.8325                 1.1211
 IR Inten    --      9.9648                12.1146                19.9389

                     28                     29                     30
                      A                      A                      A
 Frequencies --    736.3812               867.0324               876.9449
 Red. masses --      4.2668                 3.7559                 3.7678
 Frc consts  --      1.3632                 1.6635                 1.7072
 IR Inten    --     44.4134                28.2343                 8.2015

                     31                     32                     33
                      A                      A                      A
 Frequencies --    884.0142               933.9393               943.3561
 Red. masses --      2.7998                 4.0762                 3.5192
 Frc consts  --      1.2891                 2.0948                 1.8452
 IR Inten    --     18.9813                83.1240                16.2795

                     34                     35                     36
                      A                      A                      A
 Frequencies --    965.5937               992.2277              1033.6936
 Red. masses --      3.6653                 2.5882                 2.2510
 Frc consts  --      2.0135                 1.5013                 1.4171
 IR Inten    --      3.7491                22.7415                27.7719

                     37                     38                     39
                      A                      A                      A
 Frequencies --   1048.4988              1055.8833              1093.5291
 Red. masses --      3.1788                 3.0272                 1.9295
 Frc consts  --      2.0590                 1.9885                 1.3594
 IR Inten    --     48.1857                71.6265                13.3549

                     40                     41                     42
                      A                      A                      A
 Frequencies --   1107.8895              1131.8222              1142.2374
 Red. masses --      4.3266                 3.5675                 4.5187
 Frc consts  --      3.1289                 2.6926                 3.4736
 IR Inten    --     87.3618                39.7513               403.7181

                     43                     44                     45
                      A                      A                      A
 Frequencies --   1153.0678              1173.3042              1180.2675
 Red. masses --      4.0919                 2.6976                 1.2693
 Frc consts  --      3.2054                 2.1880                 1.0418
 IR Inten    --    187.8841                43.2413                 4.8788

                     46                     47                     48
                      A                      A                      A
 Frequencies --   1183.0423              1188.4526              1190.2364
 Red. masses --      1.2719                 1.3026                 1.3211
 Frc consts  --      1.0488                 1.0840                 1.1027
 IR Inten    --      4.1944                 3.9796                 0.5784

                     49                     50                     51
                      A                      A                      A
 Frequencies --   1215.6006              1219.4621              1226.8598
 Red. masses --      1.4960                 1.4827                 1.5743
 Frc consts  --      1.3025                 1.2991                 1.3961
 IR Inten    --     20.5315                35.7260                61.1745

                     52                     53                     54
                      A                      A                      A
 Frequencies --   1234.7484              1266.5753              1287.4802
 Red. masses --      1.7236                 1.4792                 1.3445
 Frc consts  --      1.5482                 1.3981                 1.3131
 IR Inten    --     12.2347                11.7660                11.4086

                     55                     56                     57
                      A                      A                      A
 Frequencies --   1315.5727              1335.5311              1343.7991
 Red. masses --      1.3016                 1.2410                 1.2526
 Frc consts  --      1.3272                 1.3042                 1.3327
 IR Inten    --      6.1436                 3.4111                40.1900

                     58                     59                     60
                      A                      A                      A
 Frequencies --   1369.7874              1374.3119              1401.4832
 Red. masses --      1.2889                 1.2562                 1.4280
 Frc consts  --      1.4248                 1.3979                 1.6525
 IR Inten    --     14.5639                 5.6059                11.5659

                     61                     62                     63
                      A                      A                      A
 Frequencies --   1419.5428              1426.6122              1441.7695
 Red. masses --      1.3030                 1.3638                 1.4199
 Frc consts  --      1.5470                 1.6354                 1.7389
 IR Inten    --     22.5912                30.6331                24.3459

                     64                     65                     66
                      A                      A                      A
 Frequencies --   1493.1143              1497.1100              1499.9939
 Red. masses --      1.1249                 1.1183                 1.1391
 Frc consts  --      1.4776                 1.4768                 1.5100
 IR Inten    --      5.2251                 2.6507                 6.5117

                     67                     68                     69
                      A                      A                      A
 Frequencies --   1504.9948              1510.6178              1513.2650
 Red. masses --      1.1067                 1.0467                 1.0631
 Frc consts  --      1.4769                 1.4073                 1.4343
 IR Inten    --      0.7678                 9.1434                 7.1832

                     70                     71                     72
                      A                      A                      A
 Frequencies --   1516.5318              1516.7480              1521.0791
 Red. masses --      1.0597                 1.0657                 1.0639
 Frc consts  --      1.4360                 1.4444                 1.4503
 IR Inten    --      8.3831                17.5066                16.4459

                     73                     74                     75
                      A                      A                      A
 Frequencies --   1523.7595              1526.2039              1528.2238
 Red. masses --      1.0545                 1.0603                 1.0594
 Frc consts  --      1.4425                 1.4551                 1.4577
 IR Inten    --     23.3926                 1.9098                28.1183

                     76                     77                     78
                      A                      A                      A
 Frequencies --   1539.1435              1649.1547              3011.6993
 Red. masses --      1.0988                 6.7524                 1.0529
 Frc consts  --      1.5337                10.8201                 5.6266
 IR Inten    --      6.7908               157.7932                36.4365

                     79                     80                     81
                      A                      A                      A
 Frequencies --   3022.1770              3034.1538              3048.3009
 Red. masses --      1.0383                 1.0341                 1.0704
 Frc consts  --      5.5874                 5.6089                 5.8603
 IR Inten    --     71.5200                47.3829                33.8011

                     82                     83                     84
                      A                      A                      A
 Frequencies --   3048.8981              3055.5428              3066.1379
 Red. masses --      1.0691                 1.0319                 1.0848
 Frc consts  --      5.8556                 5.6764                 6.0087
 IR Inten    --     54.9204                55.7056                24.0345

                     85                     86                     87
                      A                      A                      A
 Frequencies --   3076.2174              3095.6951              3117.3318
 Red. masses --      1.1068                 1.1069                 1.1018
 Frc consts  --      6.1710                 6.2498                 6.3083
 IR Inten    --     52.9226                47.5723                45.6147

                     88                     89                     90
                      A                      A                      A
 Frequencies --   3124.6704              3127.6288              3130.4772
 Red. masses --      1.0964                 1.0861                 1.0993
 Frc consts  --      6.3073                 6.2596                 6.3472
 IR Inten    --     28.7348                 6.6725                11.7558

                     91                     92                     93
                      A                      A                      A
 Frequencies --   3159.2663              3165.2215              3168.3021
 Red. masses --      1.0998                 1.1035                 1.1010
 Frc consts  --      6.4674                 6.5139                 6.5115
 IR Inten    --     26.9278                24.0899                22.5266

                     94                     95                     96
                      A                      A                      A
 Frequencies --   3176.3073              3181.9532              3206.3195
 Red. masses --      1.0859                 1.1034                 1.0951
 Frc consts  --      6.4549                 6.5823                 6.6334
 IR Inten    --      1.2831                11.1298                 1.1275

 - Thermochemistry -
 -------------------
 Temperature   298.150 Kelvin.  Pressure   1.00000 Atm.
 Atom     1 has atomic number  6 and mass  12.00000

 Molecular mass:   219.12325 amu.
 Principal axes and moments of inertia in atomic units:
                           1         2         3
     Eigenvalues --  2515.438414129.014584417.89613
           X            0.99999  -0.00438   0.00238
           Y            0.00445   0.99957  -0.02903
           Z           -0.00225   0.02904   0.99958
 This molecule is an asymmetric top.
 Rotational symmetry number  1.
 Warning -- assumption of classical behavior for rotation
           may cause significant error
 Rotational temperatures (Kelvin)      0.03443     0.02098     0.01961
 Rotational constants (GHZ):           0.71747     0.43709     0.40851
 Zero-point vibrational energy     773789.6 (Joules/Mol)
                                  184.94016 (Kcal/Mol)
 Warning -- explicit consideration of  26 degrees of freedom as
           vibrations may cause significant error
 Vibrational temperatures:     47.95    85.32   103.97   121.19   126.98
          (Kelvin)            153.06   157.31   186.97   206.90   252.57
                              257.16   265.65   323.36   359.63   365.78
                              391.53   407.83   465.40   489.14   506.82
                              563.60   626.37   671.14   728.63   778.11
                              850.50   939.30  1059.49  1247.47  1261.73
                             1271.90  1343.73  1357.28  1389.27  1427.59
                             1487.25  1508.56  1519.18  1573.34  1594.01
                             1628.44  1643.42  1659.01  1688.12  1698.14
                             1702.13  1709.92  1712.48  1748.98  1754.53
                             1765.18  1776.53  1822.32  1852.40  1892.82
                             1921.53  1933.43  1970.82  1977.33  2016.42
                             2042.41  2052.58  2074.38  2148.26  2154.01
                             2158.16  2165.35  2173.44  2177.25  2181.95
                             2182.26  2188.49  2192.35  2195.87  2198.77
                             2214.48  2372.77  4333.16  4348.24  4365.47
                             4385.83  4386.68  4396.24  4411.49  4425.99
                             4454.01  4485.15  4495.70  4499.96  4504.06
                             4545.48  4554.05  4558.48  4570.00  4578.12
                             4613.18

 Zero-point correction=                           0.294721 (Hartree/Particle)
 Thermal correction to Energy=                    0.312138
 Thermal correction to Enthalpy=                  0.313082
 Thermal correction to Gibbs Free Energy=         0.249216
 Sum of electronic and zero-point Energies=           -768.030067
 Sum of electronic and thermal Energies=              -768.012650
 Sum of electronic and thermal Enthalpies=            -768.011706
 Sum of electronic and thermal Free Energies=         -768.075572

                     E (Thermal)             CV                S
                      KCal/Mol        Cal/Mol-Kelvin    Cal/Mol-Kelvin
 Total                  195.869             61.748            134.418
 Electronic               0.000              0.000              0.000
 Translational            0.889              2.981             42.056
 Rotational               0.889              2.981             32.195
 Vibrational            194.092             55.786             60.166
 Vibration     1          0.594              1.983              5.621
 Vibration     2          0.597              1.974              4.480
 Vibration     3          0.598              1.967              4.091
 Vibration     4          0.601              1.960              3.790
 Vibration     5          0.601              1.957              3.698
 Vibration     6          0.605              1.944              3.334
 Vibration     7          0.606              1.942              3.281
 Vibration     8          0.612              1.923              2.947
 Vibration     9          0.616              1.909              2.753
 Vibration    10          0.627              1.873              2.375
 Vibration    11          0.629              1.868              2.342
 Vibration    12          0.631              1.861              2.281
 Vibration    13          0.649              1.803              1.921
 Vibration    14          0.663              1.763              1.731
 Vibration    15          0.665              1.756              1.701
 Vibration    16          0.675              1.725              1.583
 Vibration    17          0.682              1.704              1.513
 Vibration    18          0.708              1.628              1.293
 Vibration    19          0.720              1.596              1.212
 Vibration    20          0.729              1.571              1.156
 Vibration    21          0.759              1.488              0.994
 Vibration    22          0.796              1.393              0.841
 Vibration    23          0.824              1.324              0.748
 Vibration    24          0.862              1.236              0.642
 Vibration    25          0.896              1.160              0.564
 Vibration    26          0.949              1.051              0.465

                           ! Non-Optimized Parameters !
 Normal termination of Gaussian 16 at Fri May 24 08:55:20 2019.
