 Gaussian 16, Revision A.03,
 Gaussian 16:  ES64L-G16RevA.03 25-Dec-2016

 -------------------------------------------------------------------
 #p b3lyp 6-31g* opt freq=noraman scrf=(pcm,solvent=tetrahydrofuran)
 -------------------------------------------------------------------

 -----
 title
 -----
 Symbolic Z-matrix:
 Charge =  1 Multiplicity = 1

 SCF Done:  E(RB3LYP) =  -768.319108577     A.U. after   14 cycles
 Optimization completed.
    -- Stationary point found.
 Normal termination of Gaussian 16 at Fri May 24 08:39:08 2019.

 --------------------------------------------------------------------
 #P Geom=AllCheck Guess=TCheck SCRF=Check GenChk RB3LYP/6-31G(d) Freq
 --------------------------------------------------------------------

 Structure from the checkpoint file:  "/scratch/Gau-60976.chk"
 -----
 title
 -----
 Charge =  1 Multiplicity = 1

                         Standard orientation:
 ---------------------------------------------------------------------
 Center     Atomic      Atomic             Coordinates (Angstroms)
 Number     Number       Type             X           Y           Z
 ---------------------------------------------------------------------
      1          6           0       -0.947982    0.264568    0.567425
      2          6           0       -1.289602   -0.988614   -0.322280
      3          6           0       -0.996712   -0.710288   -1.748391
      4          6           0        1.048524    0.367256   -1.129309
      5          6           0        0.298101    1.039508    0.022459
      6          1           0       -1.678384   -1.010687   -2.545774
      7          1           0       -0.555708   -1.769311   -0.057203
      8          1           0       -1.783989    0.957498    0.460902
      9          1           0        1.566861    1.138785   -1.695249
     10          1           0        1.025635    1.166365    0.834168
     11          8           0        0.066522   -0.154522   -2.140053
     12          8           0       -2.535469   -1.586411   -0.140040
     13          8           0       -0.923106   -0.055075    1.929248
     14          8           0       -0.113536    2.294635   -0.492682
     15          6           0        2.029262   -0.763722   -0.787537
     16          1           0        2.539735   -1.073044   -1.710532
     17          1           0        1.527961   -1.651706   -0.374670
     18          8           0        2.921674   -0.205955    0.145493
     19          6           0       -3.676688   -0.721943   -0.033142
     20          1           0       -3.725853   -0.001580   -0.859803
     21          1           0       -4.543309   -1.381482   -0.084880
     22          1           0       -3.682418   -0.191158    0.923873
     23          6           0        0.052424   -0.998287    2.373056
     24          1           0        0.000640   -0.989828    3.462652
     25          1           0        1.067358   -0.724109    2.060044
     26          1           0       -0.180282   -2.013439    2.023350
     27          6           0       -0.327162    3.292746    0.506633
     28          1           0        0.590354    3.470197    1.082722
     29          1           0       -0.606882    4.203069   -0.025981
     30          1           0       -1.135529    3.018557    1.196965
     31          6           0        4.026383   -1.061455    0.438346
     32          1           0        4.651055   -0.525501    1.154426
     33          1           0        3.687582   -2.006322    0.883714
     34          1           0        4.607208   -1.276296   -0.468017
 ---------------------------------------------------------------------

 SCF Done:  E(RB3LYP) =  -768.319108577     A.U. after    1 cycles

 The electronic state is 1-A.
 Alpha  occ. eigenvalues --  -19.33043 -19.20866 -19.20125 -19.19567 -19.19169
 Alpha  occ. eigenvalues --  -10.39733 -10.32414 -10.32232 -10.30388 -10.29697
 Alpha  occ. eigenvalues --  -10.28952 -10.26116 -10.25862 -10.25225 -10.25163
 Alpha  occ. eigenvalues --   -1.21856  -1.09917  -1.08279  -1.07726  -1.07091
 Alpha  occ. eigenvalues --   -0.87213  -0.85798  -0.78261  -0.75290  -0.75197
 Alpha  occ. eigenvalues --   -0.71539  -0.69004  -0.68179  -0.66888  -0.62482
 Alpha  occ. eigenvalues --   -0.59714  -0.59196  -0.56586  -0.54628  -0.53620
 Alpha  occ. eigenvalues --   -0.53048  -0.52775  -0.51597  -0.51078  -0.49018
 Alpha  occ. eigenvalues --   -0.48440  -0.48302  -0.47394  -0.46463  -0.45538
 Alpha  occ. eigenvalues --   -0.44637  -0.43399  -0.43123  -0.41508  -0.40686
 Alpha  occ. eigenvalues --   -0.40194  -0.37367  -0.36588  -0.35971  -0.35285
 Alpha  occ. eigenvalues --   -0.32465  -0.31538  -0.29865  -0.28428
 Alpha virt. eigenvalues --   -0.15516   0.00289   0.03774   0.03976   0.05056
 Alpha virt. eigenvalues --    0.07222   0.07519   0.08338   0.09023   0.09671
 Alpha virt. eigenvalues --    0.10384   0.11646   0.12573   0.13206   0.13312

 Mulliken charges:
               1
     1  C    0.108247
     2  C    0.015596
     3  C    0.282592
     4  C    0.043300
     5  C    0.080223
     6  H    0.284389
     7  H    0.242234
     8  H    0.212284
     9  H    0.246097
    10  H    0.211062
    11  O   -0.310484
    12  O   -0.471603
    13  O   -0.463573
    14  O   -0.494830
    15  C   -0.038356
    16  H    0.189828
    17  H    0.162889
    18  O   -0.474900
    19  C   -0.244093
    20  H    0.166828
    21  H    0.198540
    22  H    0.186019
    23  C   -0.258748
    24  H    0.198844
    25  H    0.172262
    26  H    0.170109
    27  C   -0.227299
    28  H    0.166861
    29  H    0.185991
    30  H    0.163303
    31  C   -0.214527
    32  H    0.185611
    33  H    0.160955
    34  H    0.164348
 Sum of Mulliken charges =   1.00000

 Dipole moment (field-independent basis, Debye):
    X=             -0.0577    Y=             -2.1846    Z=             -3.1344  Tot=              3.8210
 Quadrupole moment (field-independent basis, Debye-Ang):
   XX=            -61.5065   YY=            -77.6184   ZZ=            -76.1397
   XY=             -6.1163   XZ=              5.7252   YZ=              4.3094

  Exact polarizability: 156.538   3.716 132.366   2.741   0.350 144.319
 Approx polarizability: 167.255   6.566 154.273  -0.060  -0.051 176.583

                      1                      2                      3
                      A                      A                      A
 Frequencies --     35.9103                57.4691                82.2285
 Red. masses --      4.1685                 3.1415                 3.6776
 Frc consts  --      0.0032                 0.0061                 0.0147
 IR Inten    --      3.5339                 1.5547                 1.2522

                      4                      5                      6
                      A                      A                      A
 Frequencies --     86.0269                99.6219               111.3930
 Red. masses --      2.7815                 2.7311                 2.5125
 Frc consts  --      0.0121                 0.0160                 0.0184
 IR Inten    --      4.4257                11.4499                 2.1135

                      7                      8                      9
                      A                      A                      A
 Frequencies --    135.2040               159.2534               181.7297
 Red. masses --      2.8955                 1.7904                 2.3626
 Frc consts  --      0.0312                 0.0268                 0.0460
 IR Inten    --      3.3771                 4.0596                 0.5901

                     10                     11                     12
                      A                      A                      A
 Frequencies --    190.7969               209.9999               224.3085
 Red. masses --      2.1081                 1.9587                 1.5117
 Frc consts  --      0.0452                 0.0509                 0.0448
 IR Inten    --      5.9443                 6.6370                 0.4072

                     13                     14                     15
                      A                      A                      A
 Frequencies --    244.1059               256.1086               259.5364
 Red. masses --      1.6310                 1.4833                 1.5737
 Frc consts  --      0.0573                 0.0573                 0.0625
 IR Inten    --     11.4548                 1.9497                 1.3570

                     16                     17                     18
                      A                      A                      A
 Frequencies --    276.4340               315.4350               328.9547
 Red. masses --      3.1319                 3.2082                 5.2688
 Frc consts  --      0.1410                 0.1881                 0.3359
 IR Inten    --      1.5108                 7.3178                 3.5514

                     19                     20                     21
                      A                      A                      A
 Frequencies --    340.1624               367.9599               413.7299
 Red. masses --      4.0669                 4.0974                 4.5500
 Frc consts  --      0.2773                 0.3269                 0.4589
 IR Inten    --      0.5248                 7.1867                18.8136

                     22                     23                     24
                      A                      A                      A
 Frequencies --    460.4261               480.4646               540.1563
 Red. masses --      3.6835                 5.0344                 4.6292
 Frc consts  --      0.4601                 0.6847                 0.7958
 IR Inten    --     25.6814                13.9663                 9.3533

                     25                     26                     27
                      A                      A                      A
 Frequencies --    565.9797               586.2868               608.5058
 Red. masses --      3.6468                 3.5203                 3.7708
 Frc consts  --      0.6883                 0.7129                 0.8226
 IR Inten    --     10.1291                17.9280                 6.2739

                     28                     29                     30
                      A                      A                      A
 Frequencies --    742.5239               768.1274               825.0018
 Red. masses --      3.8266                 4.0420                 2.6432
 Frc consts  --      1.2430                 1.4051                 1.0600
 IR Inten    --    104.0741                18.9272                 5.1137

                     31                     32                     33
                      A                      A                      A
 Frequencies --    930.5947               943.9319               965.8084
 Red. masses --      3.0499                 3.7431                 3.6115
 Frc consts  --      1.5562                 1.9650                 1.9848
 IR Inten    --     44.1433                43.2419                46.5710

                     34                     35                     36
                      A                      A                      A
 Frequencies --    973.8491               997.1986              1029.0896
 Red. masses --      4.3049                 3.7298                 3.6208
 Frc consts  --      2.4054                 2.1852                 2.2593
 IR Inten    --     63.8950                 3.6879                14.3734

                     37                     38                     39
                      A                      A                      A
 Frequencies --   1060.8333              1065.4976              1116.0823
 Red. masses --      2.6742                 2.9169                 2.8059
 Frc consts  --      1.7731                 1.9511                 2.0593
 IR Inten    --     49.8411               149.3064                65.8115

                     40                     41                     42
                      A                      A                      A
 Frequencies --   1123.6272              1133.9127              1155.0507
 Red. masses --      2.0140                 4.0686                 3.6115
 Frc consts  --      1.4981                 3.0822                 2.8388
 IR Inten    --     12.6111               151.9454               327.5691

                     43                     44                     45
                      A                      A                      A
 Frequencies --   1160.2785              1173.6304              1187.6947
 Red. masses --      3.1325                 1.9860                 1.2878
 Frc consts  --      2.4847                 1.6117                 1.0703
 IR Inten    --     20.7412                37.6251                 5.8956

                     46                     47                     48
                      A                      A                      A
 Frequencies --   1190.6237              1192.1833              1193.7848
 Red. masses --      1.2849                 1.2938                 1.7575
 Frc consts  --      1.0732                 1.0834                 1.4757
 IR Inten    --      5.4661                11.1065                95.5881

                     49                     50                     51
                      A                      A                      A
 Frequencies --   1225.8378              1228.7917              1234.1138
 Red. masses --      1.4803                 1.6843                 1.7042
 Frc consts  --      1.3106                 1.4984                 1.5293
 IR Inten    --     19.0083                67.6413                87.5863

                     52                     53                     54
                      A                      A                      A
 Frequencies --   1235.4662              1238.4845              1264.7066
 Red. masses --      1.7360                 1.4884                 1.1968
 Frc consts  --      1.5612                 1.3451                 1.1279
 IR Inten    --     61.9039                17.7975                14.8900

                     55                     56                     57
                      A                      A                      A
 Frequencies --   1293.3472              1340.8576              1347.5951
 Red. masses --      1.4121                 1.3313                 1.1920
 Frc consts  --      1.3917                 1.4102                 1.2754
 IR Inten    --     10.9298                26.0020                10.1267

                     58                     59                     60
                      A                      A                      A
 Frequencies --   1352.6805              1369.4134              1401.7157
 Red. masses --      1.2419                 1.2210                 1.2747
 Frc consts  --      1.3388                 1.3491                 1.4756
 IR Inten    --     22.9201                22.5699                11.2664

                     61                     62                     63
                      A                      A                      A
 Frequencies --   1408.3885              1428.6228              1446.3427
 Red. masses --      1.3874                 1.3549                 1.2928
 Frc consts  --      1.6215                 1.6293                 1.5934
 IR Inten    --     51.1385                18.2006                27.9767

                     64                     65                     66
                      A                      A                      A
 Frequencies --   1499.1340              1501.5809              1501.8891
 Red. masses --      1.1455                 1.1383                 1.1239
 Frc consts  --      1.5168                 1.5121                 1.4937
 IR Inten    --      0.3170                 2.5905                 2.0364

                     67                     68                     69
                      A                      A                      A
 Frequencies --   1504.6818              1509.5315              1515.3679
 Red. masses --      1.1370                 1.0546                 1.0541
 Frc consts  --      1.5167                 1.4158                 1.4261
 IR Inten    --      1.9537                10.8867                12.0003

                     70                     71                     72
                      A                      A                      A
 Frequencies --   1518.1371              1522.4708              1525.8770
 Red. masses --      1.0570                 1.0499                 1.0620
 Frc consts  --      1.4354                 1.4339                 1.4569
 IR Inten    --      8.6067                 5.0634                14.2028

                     73                     74                     75
                      A                      A                      A
 Frequencies --   1529.6944              1534.3198              1537.6255
 Red. masses --      1.0689                 1.0584                 1.0475
 Frc consts  --      1.4736                 1.4681                 1.4592
 IR Inten    --     14.2463                20.7179                19.7424

                     76                     77                     78
                      A                      A                      A
 Frequencies --   1566.1820              1623.9181              2999.8517
 Red. masses --      1.0827                 5.2753                 1.0761
 Frc consts  --      1.5647                 8.1964                 5.7055
 IR Inten    --      8.3190               181.3232                39.5733

                     79                     80                     81
                      A                      A                      A
 Frequencies --   3018.6562              3028.9668              3030.7567
 Red. masses --      1.0545                 1.0371                 1.0365
 Frc consts  --      5.6615                 5.6059                 5.6094
 IR Inten    --     37.5844                 1.2561               120.4470

                     82                     83                     84
                      A                      A                      A
 Frequencies --   3031.2164              3049.1347              3055.5045
 Red. masses --      1.0364                 1.0359                 1.1057
 Frc consts  --      5.6105                 5.6747                 6.0820
 IR Inten    --     25.8024                36.2560                54.8843

                     85                     86                     87
                      A                      A                      A
 Frequencies --   3068.4867              3088.8289              3090.8979
 Red. masses --      1.0845                 1.1072                 1.1067
 Frc consts  --      6.0162                 6.2238                 6.2293
 IR Inten    --      7.1196                48.3638                57.0124

                     88                     89                     90
                      A                      A                      A
 Frequencies --   3096.0150              3122.6761              3137.6770
 Red. masses --      1.1032                 1.1032                 1.0858
 Frc consts  --      6.2302                 6.3379                 6.2982
 IR Inten    --     36.0430                39.3785                 6.2880

                     91                     92                     93
                      A                      A                      A
 Frequencies --   3166.2745              3168.1278              3170.0827
 Red. masses --      1.1007                 1.1007                 1.0998
 Frc consts  --      6.5016                 6.5089                 6.5118
 IR Inten    --     23.8055                21.0541                16.4590

                     94                     95                     96
                      A                      A                      A
 Frequencies --   3179.4389              3180.3479              3201.9463
 Red. masses --      1.1023                 1.0883                 1.0948
 Frc consts  --      6.5653                 6.4853                 6.6135
 IR Inten    --     17.2238                 0.6251                 4.3360

 - Thermochemistry -
 -------------------
 Temperature   298.150 Kelvin.  Pressure   1.00000 Atm.
 Atom     1 has atomic number  6 and mass  12.00000

 Molecular mass:   219.12325 amu.
 Principal axes and moments of inertia in atomic units:
                           1         2         3
     Eigenvalues --  2523.588594144.410964417.30165
           X            0.99947  -0.03154   0.00839
           Y            0.03144   0.99944   0.01158
           Z           -0.00875  -0.01131   0.99990
 This molecule is an asymmetric top.
 Rotational symmetry number  1.
 Warning -- assumption of classical behavior for rotation
           may cause significant error
 Rotational temperatures (Kelvin)      0.03432     0.02090     0.01961
 Rotational constants (GHZ):           0.71515     0.43546     0.40856
 Zero-point vibrational energy     775414.5 (Joules/Mol)
                                  185.32850 (Kcal/Mol)
 Warning -- explicit consideration of  27 degrees of freedom as
           vibrations may cause significant error
 Vibrational temperatures:     51.67    82.69   118.31   123.77   143.33
          (Kelvin)            160.27   194.53   229.13   261.47   274.51
                              302.14   322.73   351.21   368.48   373.41
                              397.73   453.84   473.29   489.42   529.41
                              595.27   662.45   691.28   777.16   814.32
                              843.54   875.50  1068.33  1105.16  1186.99
                             1338.92  1358.11  1389.58  1401.15  1434.75
                             1480.63  1526.30  1533.01  1605.79  1616.65
                             1631.45  1661.86  1669.38  1688.59  1708.83
                             1713.04  1715.29  1717.59  1763.71  1767.96
                             1775.61  1777.56  1781.90  1819.63  1860.84
                             1929.20  1938.89  1946.21  1970.28  2016.76
                             2026.36  2055.47  2080.96  2156.92  2160.44
                             2160.88  2164.90  2171.88  2180.28  2184.26
                             2190.50  2195.40  2200.89  2207.54  2212.30
                             2253.39  2336.46  4316.12  4343.17  4358.01
                             4360.58  4361.24  4387.02  4396.19  4414.87
                             4444.14  4447.11  4454.47  4492.83  4514.42
                             4555.56  4558.23  4561.04  4574.50  4575.81
                             4606.89

 Zero-point correction=                           0.295340 (Hartree/Particle)
 Thermal correction to Energy=                    0.312232
 Thermal correction to Enthalpy=                  0.313176
 Thermal correction to Gibbs Free Energy=         0.250967
 Sum of electronic and zero-point Energies=           -768.023769
 Sum of electronic and thermal Energies=              -768.006876
 Sum of electronic and thermal Enthalpies=            -768.005932
 Sum of electronic and thermal Free Energies=         -768.068141

                     E (Thermal)             CV                S
                      KCal/Mol        Cal/Mol-Kelvin    Cal/Mol-Kelvin
 Total                  195.929             61.229            130.930
 Electronic               0.000              0.000              0.000
 Translational            0.889              2.981             42.056
 Rotational               0.889              2.981             32.202
 Vibrational            194.151             55.267             56.672
 Vibration     1          0.594              1.982              5.473
 Vibration     2          0.596              1.975              4.542
 Vibration     3          0.600              1.961              3.837
 Vibration     4          0.601              1.959              3.748
 Vibration     5          0.604              1.949              3.462
 Vibration     6          0.607              1.940              3.244
 Vibration     7          0.613              1.918              2.871
 Vibration     8          0.621              1.892              2.559
 Vibration     9          0.630              1.865              2.311
 Vibration    10          0.634              1.853              2.220
 Vibration    11          0.642              1.826              2.044
 Vibration    12          0.649              1.804              1.924
 Vibration    13          0.659              1.773              1.773
 Vibration    14          0.666              1.752              1.688
 Vibration    15          0.668              1.747              1.665
 Vibration    16          0.678              1.717              1.556
 Vibration    17          0.703              1.644              1.334
 Vibration    18          0.712              1.618              1.265
 Vibration    19          0.720              1.595              1.211
 Vibration    20          0.741              1.538              1.088
 Vibration    21          0.777              1.440              0.914
 Vibration    22          0.818              1.338              0.765
 Vibration    23          0.837              1.293              0.709
 Vibration    24          0.895              1.161              0.565
 Vibration    25          0.922              1.105              0.512
 Vibration    26          0.943              1.061              0.474
 Vibration    27          0.967              1.014              0.435

 Optimization completed.
    -- Stationary point found.
 Normal termination of Gaussian 16 at Fri May 24 09:31:28 2019.
