 Gaussian 16, Revision A.03,
 Gaussian 16:  ES64L-G16RevA.03 25-Dec-2016

 ----------------------------------------------------------------------
 #p b3lyp 6-31g* opt=(maxstep=1,calcfc) freq=noraman scrf=(pcm,solvent=
 tetrahydrofuran)
 ----------------------------------------------------------------------

 -----
 title
 -----
 Symbolic Z-matrix:
 Charge =  1 Multiplicity = 1

 SCF Done:  E(RB3LYP) =  -768.321405627     A.U. after   14 cycles
 Optimization completed.
    -- Stationary point found.
 Normal termination of Gaussian 16 at Sat May 25 18:41:27 2019.

 --------------------------------------------------------------------
 #P Geom=AllCheck Guess=TCheck SCRF=Check GenChk RB3LYP/6-31G(d) Freq
 --------------------------------------------------------------------

 Structure from the checkpoint file:  "/scratch/Gau-121883.chk"
 -----
 title
 -----
 Charge =  1 Multiplicity = 1

                         Standard orientation:
 ---------------------------------------------------------------------
 Center     Atomic      Atomic             Coordinates (Angstroms)
 Number     Number       Type             X           Y           Z
 ---------------------------------------------------------------------
      1          6           0       -0.919748    0.549062    0.470536
      2          6           0       -1.569880   -0.463053   -0.551237
      3          6           0       -0.952109   -0.363563   -1.891568
      4          6           0        1.215549    0.006943   -0.937755
      5          6           0        0.556902    0.908138    0.106082
      6          1           0       -1.566246   -0.431704   -2.790229
      7          1           0       -1.329098   -1.488736   -0.209636
      8          1           0       -1.499865    1.464258    0.333854
      9          1           0        2.026532    0.561246   -1.406575
     10          1           0        1.180156    0.845403    1.007922
     11          8           0        0.279464   -0.188190   -2.094140
     12          8           0       -2.944602   -0.281496   -0.713632
     13          8           0       -1.151147    0.176853    1.803860
     14          8           0        0.600781    2.209449   -0.455798
     15          6           0        1.703407   -1.383763   -0.478224
     16          1           0        2.167906   -1.894999   -1.331307
     17          1           0        0.869903   -2.000194   -0.131096
     18          8           0        2.587978   -1.243804    0.604972
     19          6           0       -3.771632   -1.010278    0.206652
     20          1           0       -3.604169   -0.674271    1.234045
     21          1           0       -4.800182   -0.800950   -0.088618
     22          1           0       -3.581811   -2.088299    0.128777
     23          6           0       -0.487506   -0.981416    2.311694
     24          1           0       -0.737809   -1.023198    3.372641
     25          1           0        0.601144   -0.921667    2.201661
     26          1           0       -0.850796   -1.904006    1.837451
     27          6           0        0.542552    3.264464    0.505178
     28          1           0        1.385501    3.201405    1.205717
     29          1           0        0.605098    4.195803   -0.059842
     30          1           0       -0.396390    3.253418    1.073739
     31          6           0        3.952648   -1.000985    0.247323
     32          1           0        4.517851   -1.017056    1.180432
     33          1           0        4.324894   -1.788388   -0.419801
     34          1           0        4.086498   -0.023858   -0.233328
 ---------------------------------------------------------------------

 SCF Done:  E(RB3LYP) =  -768.321405627     A.U. after    1 cycles

 The electronic state is 1-A.
 Alpha  occ. eigenvalues --  -19.33029 -19.20612 -19.20116 -19.19776 -19.19199
 Alpha  occ. eigenvalues --  -10.39611 -10.32277 -10.32014 -10.30095 -10.29656
 Alpha  occ. eigenvalues --  -10.29010 -10.25855 -10.25713 -10.25403 -10.25167
 Alpha  occ. eigenvalues --   -1.21840  -1.09752  -1.08201  -1.07691  -1.07068
 Alpha  occ. eigenvalues --   -0.87114  -0.85694  -0.77998  -0.75320  -0.75010
 Alpha  occ. eigenvalues --   -0.71133  -0.69379  -0.68583  -0.66477  -0.61956
 Alpha  occ. eigenvalues --   -0.60040  -0.59260  -0.56612  -0.54464  -0.53801
 Alpha  occ. eigenvalues --   -0.52924  -0.52680  -0.51506  -0.50776  -0.49068
 Alpha  occ. eigenvalues --   -0.48352  -0.48137  -0.47054  -0.46368  -0.45911
 Alpha  occ. eigenvalues --   -0.44512  -0.42988  -0.42674  -0.42084  -0.41373
 Alpha  occ. eigenvalues --   -0.39891  -0.37063  -0.36560  -0.36197  -0.34976
 Alpha  occ. eigenvalues --   -0.33051  -0.31134  -0.30259  -0.27971
 Alpha virt. eigenvalues --   -0.15408   0.00405   0.03652   0.03739   0.05050
 Alpha virt. eigenvalues --    0.06696   0.08122   0.08602   0.09031   0.09820
 Alpha virt. eigenvalues --    0.10604   0.11431   0.12124   0.12867   0.13187

 Mulliken charges:
               1
     1  C    0.126445
     2  C    0.022770
     3  C    0.289600
     4  C    0.042329
     5  C    0.076386
     6  H    0.282977
     7  H    0.227614
     8  H    0.216625
     9  H    0.238352
    10  H    0.203291
    11  O   -0.311440
    12  O   -0.481934
    13  O   -0.467384
    14  O   -0.493913
    15  C   -0.056222
    16  H    0.194487
    17  H    0.177585
    18  O   -0.460574
    19  C   -0.232869
    20  H    0.182357
    21  H    0.192505
    22  H    0.168362
    23  C   -0.260971
    24  H    0.198323
    25  H    0.182317
    26  H    0.160771
    27  C   -0.226865
    28  H    0.165278
    29  H    0.186561
    30  H    0.163988
    31  C   -0.228081
    32  H    0.189109
    33  H    0.168186
    34  H    0.164035
 Sum of Mulliken charges =   1.00000

 Dipole moment (field-independent basis, Debye):
    X=              0.3756    Y=             -2.8381    Z=             -2.8459  Tot=              4.0367
 Quadrupole moment (field-independent basis, Debye-Ang):
   XX=            -62.8464   YY=            -75.2179   ZZ=            -77.0454
   XY=              4.6843   XZ=              0.5621   YZ=              4.2039

  Exact polarizability: 163.612   3.584 130.955   1.782   0.862 143.681
 Approx polarizability: 176.524   2.157 148.349   0.193  -0.249 178.674

                      1                      2                      3
                      A                      A                      A
 Frequencies --     28.5363                36.8173                54.3274
 Red. masses --      4.1275                 3.9026                 2.8243
 Frc consts  --      0.0020                 0.0031                 0.0049
 IR Inten    --      1.1246                 3.9444                 0.3934

                      4                      5                      6
                      A                      A                      A
 Frequencies --     72.3484                93.9255                98.7499
 Red. masses --      2.5709                 2.1284                 2.5451
 Frc consts  --      0.0079                 0.0111                 0.0146
 IR Inten    --      2.1433                 9.9850                 2.4107

                      7                      8                      9
                      A                      A                      A
 Frequencies --    116.6193               137.5019               157.2135
 Red. masses --      2.0800                 1.7665                 1.3965
 Frc consts  --      0.0167                 0.0197                 0.0203
 IR Inten    --      4.1157                 0.6941                 3.6806

                     10                     11                     12
                      A                      A                      A
 Frequencies --    171.0915               178.1709               190.8354
 Red. masses --      1.5873                 1.7026                 2.4825
 Frc consts  --      0.0274                 0.0318                 0.0533
 IR Inten    --      0.3502                 6.0101                 2.9167

                     13                     14                     15
                      A                      A                      A
 Frequencies --    219.6462               222.4546               250.6183
 Red. masses --      1.6834                 2.4172                 3.2294
 Frc consts  --      0.0479                 0.0705                 0.1195
 IR Inten    --      0.9862                 6.3325                 6.6705

                     16                     17                     18
                      A                      A                      A
 Frequencies --    280.7419               311.6671               328.2502
 Red. masses --      2.9734                 4.8702                 4.1200
 Frc consts  --      0.1381                 0.2787                 0.2615
 IR Inten    --      3.0263                 2.6404                 6.4833

                     19                     20                     21
                      A                      A                      A
 Frequencies --    393.8204               406.1578               416.1061
 Red. masses --      4.3603                 4.0739                 3.2474
 Frc consts  --      0.3984                 0.3960                 0.3313
 IR Inten    --     24.1638                 3.8316                 6.1527

                     22                     23                     24
                      A                      A                      A
 Frequencies --    470.5094               489.8800               500.0737
 Red. masses --      3.5925                 3.5476                 5.0933
 Frc consts  --      0.4686                 0.5016                 0.7504
 IR Inten    --      2.3540                28.3764                13.7475

                     25                     26                     27
                      A                      A                      A
 Frequencies --    527.9771               558.5853               612.1114
 Red. masses --      3.2642                 4.3972                 4.0726
 Frc consts  --      0.5361                 0.8084                 0.8990
 IR Inten    --     29.7290                11.7708                 4.5099

                     28                     29                     30
                      A                      A                      A
 Frequencies --    747.4386               764.6135               811.1180
 Red. masses --      4.3024                 2.9165                 2.8876
 Frc consts  --      1.4162                 1.0046                 1.1193
 IR Inten    --     73.2214                33.7943                 2.0455

                     31                     32                     33
                      A                      A                      A
 Frequencies --    915.7394               933.2826               949.6386
 Red. masses --      3.1513                 3.8713                 4.2913
 Frc consts  --      1.5570                 1.9867                 2.2801
 IR Inten    --     43.8002                65.9275                29.7960

                     34                     35                     36
                      A                      A                      A
 Frequencies --    969.6023              1002.1779              1024.1587
 Red. masses --      2.9624                 4.4602                 3.8004
 Frc consts  --      1.6409                 2.6393                 2.3486
 IR Inten    --     15.4690                 3.7770                38.5816

                     37                     38                     39
                      A                      A                      A
 Frequencies --   1050.4616              1073.5307              1104.1638
 Red. masses --      2.4682                 3.1986                 2.6075
 Frc consts  --      1.6047                 2.1719                 1.8730
 IR Inten    --     50.8754               197.5021                75.6493

                     40                     41                     42
                      A                      A                      A
 Frequencies --   1111.8166              1130.9890              1151.8425
 Red. masses --      2.0694                 5.7012                 3.1596
 Frc consts  --      1.5072                 4.2967                 2.4698
 IR Inten    --     36.5057               224.6296               133.4694

                     43                     44                     45
                      A                      A                      A
 Frequencies --   1157.4863              1166.7038              1181.7354
 Red. masses --      4.2155                 2.6050                 1.2559
 Frc consts  --      3.3276                 2.0892                 1.0333
 IR Inten    --     37.3590               158.6654                 1.3498

                     46                     47                     48
                      A                      A                      A
 Frequencies --   1184.3085              1186.0270              1188.0397
 Red. masses --      1.2689                 1.3101                 1.3059
 Frc consts  --      1.0486                 1.0858                 1.0860
 IR Inten    --      5.3765                 1.4274                 3.7476

                     49                     50                     51
                      A                      A                      A
 Frequencies --   1220.5150              1223.8791              1226.4829
 Red. masses --      1.5284                 1.7716                 1.5452
 Frc consts  --      1.3415                 1.5635                 1.3695
 IR Inten    --    123.4110                35.7286                45.5260

                     52                     53                     54
                      A                      A                      A
 Frequencies --   1230.8829              1234.4437              1277.8445
 Red. masses --      1.4823                 1.4951                 1.3969
 Frc consts  --      1.3232                 1.3423                 1.3439
 IR Inten    --    113.3765                 8.1925                 6.4738

                     55                     56                     57
                      A                      A                      A
 Frequencies --   1311.1656              1330.2128              1334.0623
 Red. masses --      1.3775                 1.2449                 1.2537
 Frc consts  --      1.3953                 1.2978                 1.3146
 IR Inten    --      4.2580                25.0613                19.8836

                     58                     59                     60
                      A                      A                      A
 Frequencies --   1349.2681              1358.4976              1394.5447
 Red. masses --      1.3278                 1.2035                 1.3010
 Frc consts  --      1.4242                 1.3087                 1.4907
 IR Inten    --     35.9845                12.6173                13.0063

                     61                     62                     63
                      A                      A                      A
 Frequencies --   1404.0554              1421.6125              1426.5487
 Red. masses --      1.4400                 1.3352                 1.2602
 Frc consts  --      1.6725                 1.5898                 1.5110
 IR Inten    --     46.2898                18.4258                22.3549

                     64                     65                     66
                      A                      A                      A
 Frequencies --   1495.2423              1498.5140              1499.0249
 Red. masses --      1.1467                 1.1105                 1.1251
 Frc consts  --      1.5106                 1.4692                 1.4896
 IR Inten    --      1.5360                 1.7653                 1.9092

                     67                     68                     69
                      A                      A                      A
 Frequencies --   1504.6530              1508.4338              1513.8045
 Red. masses --      1.0856                 1.0843                 1.0553
 Frc consts  --      1.4481                 1.4536                 1.4248
 IR Inten    --      3.4467                 5.0681                10.2924

                     70                     71                     72
                      A                      A                      A
 Frequencies --   1518.8725              1524.3751              1525.5451
 Red. masses --      1.0808                 1.0478                 1.0536
 Frc consts  --      1.4690                 1.4345                 1.4448
 IR Inten    --     12.4923                 0.8412                10.8058

                     73                     74                     75
                      A                      A                      A
 Frequencies --   1527.3201              1529.6554              1530.8307
 Red. masses --      1.0621                 1.0607                 1.0617
 Frc consts  --      1.4598                 1.4623                 1.4659
 IR Inten    --     24.8340                24.2092                15.0318

                     76                     77                     78
                      A                      A                      A
 Frequencies --   1544.1784              1633.5241              2953.3480
 Red. masses --      1.0803                 5.7054                 1.0765
 Frc consts  --      1.5177                 8.9698                 5.5321
 IR Inten    --     11.2809               201.3298                41.2645

                     79                     80                     81
                      A                      A                      A
 Frequencies --   3026.4108              3030.3769              3036.8213
 Red. masses --      1.0421                 1.0344                 1.0340
 Frc consts  --      5.6238                 5.5968                 5.6182
 IR Inten    --     44.8674                52.6697                53.9034

                     82                     83                     84
                      A                      A                      A
 Frequencies --   3043.9735              3058.9922              3060.7653
 Red. masses --      1.0384                 1.0840                 1.0634
 Frc consts  --      5.6688                 5.9766                 5.8697
 IR Inten    --     43.6572                 7.7001                33.0599

                     85                     86                     87
                      A                      A                      A
 Frequencies --   3089.7801              3099.7622              3102.8035
 Red. masses --      1.1068                 1.1073                 1.0969
 Frc consts  --      6.2256                 6.2688                 6.2217
 IR Inten    --     54.7220                50.5965                38.0126

                     88                     89                     90
                      A                      A                      A
 Frequencies --   3123.3549              3126.0386              3126.4796
 Red. masses --      1.0863                 1.1005                 1.1011
 Frc consts  --      6.2439                 6.3362                 6.3414
 IR Inten    --      3.8265                25.2969                22.5876

                     91                     92                     93
                      A                      A                      A
 Frequencies --   3166.2887              3167.7568              3170.1861
 Red. masses --      1.1006                 1.1006                 1.1009
 Frc consts  --      6.5009                 6.5069                 6.5186
 IR Inten    --     23.3283                20.1607                17.7316

                     94                     95                     96
                      A                      A                      A
 Frequencies --   3173.0888              3180.7795              3206.5551
 Red. masses --      1.0894                 1.1041                 1.0948
 Frc consts  --      6.4627                 6.5817                 6.6322
 IR Inten    --      2.0438                17.3482                 6.2178

 - Thermochemistry -
 -------------------
 Temperature   298.150 Kelvin.  Pressure   1.00000 Atm.
 Atom     1 has atomic number  6 and mass  12.00000

 Molecular mass:   219.12325 amu.
 Principal axes and moments of inertia in atomic units:
                           1         2         3
     Eigenvalues --  2448.174344218.957664461.95477
           X            0.99992   0.01122  -0.00656
           Y           -0.01109   0.99974   0.02015
           Z            0.00679  -0.02007   0.99978
 This molecule is an asymmetric top.
 Rotational symmetry number  1.
 Warning -- assumption of classical behavior for rotation
           may cause significant error
 Rotational temperatures (Kelvin)      0.03538     0.02053     0.01941
 Rotational constants (GHZ):           0.73718     0.42777     0.40447
 Zero-point vibrational energy     772615.1 (Joules/Mol)
                                  184.65945 (Kcal/Mol)
 Warning -- explicit consideration of  27 degrees of freedom as
           vibrations may cause significant error
 Vibrational temperatures:     41.06    52.97    78.17   104.09   135.14
          (Kelvin)            142.08   167.79   197.83   226.20   246.16
                              256.35   274.57   316.02   320.06   360.58
                              403.92   448.42   472.28   566.62   584.37
                              598.68   676.96   704.83   719.49   759.64
                              803.68   880.69  1075.40  1100.11  1167.02
                             1317.54  1342.79  1366.32  1395.04  1441.91
                             1473.54  1511.38  1544.57  1588.65  1599.66
                             1627.24  1657.24  1665.36  1678.63  1700.25
                             1703.96  1706.43  1709.32  1756.05  1760.89
                             1764.64  1770.97  1776.09  1838.53  1886.47
                             1913.88  1919.42  1941.30  1954.57  2006.44
                             2020.12  2045.38  2052.49  2151.32  2156.03
                             2156.76  2164.86  2170.30  2178.03  2185.32
                             2193.24  2194.92  2197.47  2200.83  2202.52
                             2221.73  2350.28  4249.21  4354.33  4360.04
                             4369.31  4379.60  4401.21  4403.76  4445.50
                             4459.87  4464.24  4493.81  4497.67  4498.31
                             4555.58  4557.70  4561.19  4565.37  4576.43
                             4613.52

 Zero-point correction=                           0.294274 (Hartree/Particle)
 Thermal correction to Energy=                    0.311662
 Thermal correction to Enthalpy=                  0.312606
 Thermal correction to Gibbs Free Energy=         0.248109
 Sum of electronic and zero-point Energies=           -768.027132
 Sum of electronic and thermal Energies=              -768.009744
 Sum of electronic and thermal Enthalpies=            -768.008800
 Sum of electronic and thermal Free Energies=         -768.073297

                     E (Thermal)             CV                S
                      KCal/Mol        Cal/Mol-Kelvin    Cal/Mol-Kelvin
 Total                  195.571             61.720            135.745
 Electronic               0.000              0.000              0.000
 Translational            0.889              2.981             42.056
 Rotational               0.889              2.981             32.200
 Vibrational            193.793             55.759             61.489
 Vibration     1          0.593              1.984              5.929
 Vibration     2          0.594              1.982              5.423
 Vibration     3          0.596              1.976              4.653
 Vibration     4          0.598              1.967              4.088
 Vibration     5          0.603              1.954              3.577
 Vibration     6          0.604              1.950              3.479
 Vibration     7          0.608              1.936              3.156
 Vibration     8          0.614              1.916              2.838
 Vibration     9          0.621              1.895              2.583
 Vibration    10          0.626              1.878              2.423
 Vibration    11          0.629              1.869              2.347
 Vibration    12          0.634              1.853              2.220
 Vibration    13          0.647              1.811              1.962
 Vibration    14          0.648              1.807              1.939
 Vibration    15          0.663              1.762              1.726
 Vibration    16          0.680              1.709              1.529
 Vibration    17          0.700              1.651              1.353
 Vibration    18          0.711              1.619              1.269
 Vibration    19          0.761              1.483              0.986
 Vibration    20          0.771              1.457              0.940
 Vibration    21          0.779              1.435              0.905
 Vibration    22          0.828              1.315              0.736
 Vibration    23          0.846              1.272              0.684
 Vibration    24          0.855              1.250              0.658
 Vibration    25          0.883              1.188              0.592
 Vibration    26          0.914              1.121              0.527
 Vibration    27          0.971              1.006              0.429

 Optimization completed.
    -- Stationary point found.
 Normal termination of Gaussian 16 at Sat May 25 18:51:40 2019.
