 Gaussian 16, Revision A.03,
 Gaussian 16:  ES64L-G16RevA.03 25-Dec-2016

 -------------------------------------------------------------------
 #p b3lyp 6-31g* opt freq=noraman scrf=(pcm,solvent=tetrahydrofuran)
 -------------------------------------------------------------------

 -----
 title
 -----
 Symbolic Z-matrix:
 Charge =  1 Multiplicity = 1

 SCF Done:  E(RB3LYP) =  -768.315166177     A.U. after   14 cycles
 Optimization completed.
    -- Stationary point found.
 Normal termination of Gaussian 16 at Fri May 24 08:37:07 2019.

 --------------------------------------------------------------------
 #P Geom=AllCheck Guess=TCheck SCRF=Check GenChk RB3LYP/6-31G(d) Freq
 --------------------------------------------------------------------

 Structure from the checkpoint file:  "/scratch/Gau-14738.chk"
 -----
 title
 -----
 Charge =  1 Multiplicity = 1

                         Standard orientation:
 ---------------------------------------------------------------------
 Center     Atomic      Atomic             Coordinates (Angstroms)
 Number     Number       Type             X           Y           Z
 ---------------------------------------------------------------------
      1          6           0       -1.589958   -0.542120    0.431539
      2          6           0       -1.668103    0.855881   -0.267164
      3          6           0       -0.820426    0.845472   -1.501917
      4          6           0        0.919515   -0.173915   -0.192155
      5          6           0       -0.134366   -1.104377    0.455742
      6          1           0       -1.137098    1.217270   -2.477699
      7          1           0       -2.706647    1.105704   -0.504740
      8          1           0       -1.904142   -0.343259    1.458415
      9          1           0        1.120470    0.704936    0.419658
     10          1           0       -0.138462   -2.035137   -0.118791
     11          8           0        0.361042    0.412968   -1.469991
     12          8           0       -1.078619    1.780410    0.633007
     13          8           0       -2.545864   -1.441453   -0.071263
     14          8           0        0.291896   -1.508302    1.740407
     15          6           0        2.191433   -0.895626   -0.617571
     16          1           0        1.944873   -1.617916   -1.403031
     17          1           0        2.555486   -1.455593    0.255695
     18          8           0        3.163773   -0.025291   -1.142228
     19          6           0       -1.499450    3.149323    0.471650
     20          1           0       -1.129920    3.582450   -0.463897
     21          1           0       -2.591763    3.218783    0.509257
     22          1           0       -1.065430    3.685815    1.315723
     23          6           0       -2.432597   -1.829697   -1.432817
     24          1           0       -1.544907   -2.442669   -1.631769
     25          1           0       -3.324411   -2.414891   -1.660960
     26          1           0       -2.418338   -0.954783   -2.107626
     27          6           0        0.481275   -0.499616    2.740430
     28          1           0        1.428116    0.036083    2.600956
     29          1           0       -0.338461    0.226206    2.766011
     30          1           0        0.517418   -1.032854    3.691671
     31          6           0        3.981480    0.602743   -0.158522
     32          1           0        4.706212    1.213062   -0.700726
     33          1           0        3.402272    1.254887    0.510210
     34          1           0        4.514090   -0.143169    0.446898
 ---------------------------------------------------------------------

 SCF Done:  E(RB3LYP) =  -768.315166177     A.U. after    1 cycles

 The electronic state is 1-A.
 Alpha  occ. eigenvalues --  -19.33004 -19.22438 -19.20294 -19.19594 -19.18299
 Alpha  occ. eigenvalues --  -10.39606 -10.31938 -10.31625 -10.30043 -10.29960
 Alpha  occ. eigenvalues --  -10.27586 -10.26766 -10.26718 -10.25381 -10.24795
 Alpha  occ. eigenvalues --   -1.21750  -1.10188  -1.08674  -1.07311  -1.06505
 Alpha  occ. eigenvalues --   -0.86893  -0.85354  -0.77515  -0.75957  -0.74528
 Alpha  occ. eigenvalues --   -0.72052  -0.69437  -0.68773  -0.65663  -0.61535
 Alpha  occ. eigenvalues --   -0.61325  -0.58791  -0.57255  -0.54925  -0.53522
 Alpha  occ. eigenvalues --   -0.52438  -0.51415  -0.50717  -0.50267  -0.49985
 Alpha  occ. eigenvalues --   -0.49130  -0.48369  -0.47773  -0.46286  -0.45538
 Alpha  occ. eigenvalues --   -0.44423  -0.43751  -0.42761  -0.42096  -0.40791
 Alpha  occ. eigenvalues --   -0.40643  -0.38035  -0.36309  -0.35204  -0.34753
 Alpha  occ. eigenvalues --   -0.33457  -0.31344  -0.29800  -0.28353
 Alpha virt. eigenvalues --   -0.16203   0.00480   0.03791   0.04543   0.05806
 Alpha virt. eigenvalues --    0.06704   0.07932   0.08343   0.09375   0.09503
 Alpha virt. eigenvalues --    0.10622   0.11183   0.12032   0.12353   0.12942

 Mulliken charges:
               1
     1  C    0.101958
     2  C    0.021340
     3  C    0.269697
     4  C    0.030258
     5  C    0.097889
     6  H    0.284696
     7  H    0.220044
     8  H    0.216245
     9  H    0.237873
    10  H    0.196627
    11  O   -0.296308
    12  O   -0.469407
    13  O   -0.460903
    14  O   -0.480528
    15  C   -0.046022
    16  H    0.188916
    17  H    0.187335
    18  O   -0.470055
    19  C   -0.230607
    20  H    0.177027
    21  H    0.183193
    22  H    0.201931
    23  C   -0.245985
    24  H    0.177949
    25  H    0.207798
    26  H    0.147859
    27  C   -0.244369
    28  H    0.164467
    29  H    0.170211
    30  H    0.191476
    31  C   -0.225799
    32  H    0.182148
    33  H    0.151430
    34  H    0.161614
 Sum of Mulliken charges =   1.00000

 Dipole moment (field-independent basis, Debye):
    X=             -2.8049    Y=              4.3461    Z=             -2.6764  Tot=              5.8240
 Quadrupole moment (field-independent basis, Debye-Ang):
   XX=            -71.8198   YY=            -72.8689   ZZ=            -75.1131
   XY=             -5.9640   XZ=             13.4448   YZ=              3.3632

  Exact polarizability: 154.777   2.534 142.984   8.862   2.098 138.871
 Approx polarizability: 170.742   4.070 163.142   4.324  -1.499 167.809

                      1                      2                      3
                      A                      A                      A
 Frequencies --     41.9035                62.4581                77.7365
 Red. masses --      4.1295                 3.4311                 3.2606
 Frc consts  --      0.0043                 0.0079                 0.0116
 IR Inten    --      0.2119                 0.2689                 6.0895

                      4                      5                      6
                      A                      A                      A
 Frequencies --     86.4630               108.7765               120.1182
 Red. masses --      2.6118                 2.3025                 1.6063
 Frc consts  --      0.0115                 0.0161                 0.0137
 IR Inten    --      5.2518                 2.7916                 1.8547

                      7                      8                      9
                      A                      A                      A
 Frequencies --    134.4280               142.6552               157.8053
 Red. masses --      2.4824                 2.8057                 2.0147
 Frc consts  --      0.0264                 0.0336                 0.0296
 IR Inten    --      1.7635                 2.7913                 2.1633

                     10                     11                     12
                      A                      A                      A
 Frequencies --    179.6234               198.4326               220.5861
 Red. masses --      1.7024                 2.4319                 1.9229
 Frc consts  --      0.0324                 0.0564                 0.0551
 IR Inten    --      8.1188                 8.2395                 5.0002

                     13                     14                     15
                      A                      A                      A
 Frequencies --    226.0056               256.0407               268.3205
 Red. masses --      1.6116                 1.5280                 3.5508
 Frc consts  --      0.0485                 0.0590                 0.1506
 IR Inten    --      0.7054                11.8708                12.6328

                     16                     17                     18
                      A                      A                      A
 Frequencies --    292.9810               296.9001               321.7663
 Red. masses --      3.6891                 3.3188                 3.1708
 Frc consts  --      0.1866                 0.1724                 0.1934
 IR Inten    --      4.2430                 5.5063                 8.4966

                     19                     20                     21
                      A                      A                      A
 Frequencies --    346.4593               352.0241               434.5936
 Red. masses --      2.6880                 3.8392                 3.2662
 Frc consts  --      0.1901                 0.2803                 0.3635
 IR Inten    --     11.7688                 5.0417                 4.4619

                     22                     23                     24
                      A                      A                      A
 Frequencies --    452.2557               486.2106               492.8035
 Red. masses --      2.8286                 3.7855                 5.1903
 Frc consts  --      0.3409                 0.5273                 0.7427
 IR Inten    --      4.5797                49.0954                 7.2056

                     25                     26                     27
                      A                      A                      A
 Frequencies --    540.9822               561.1752               624.3159
 Red. masses --      3.4422                 3.9311                 4.1372
 Frc consts  --      0.5935                 0.7294                 0.9501
 IR Inten    --     13.4614                 7.7959                33.2979

                     28                     29                     30
                      A                      A                      A
 Frequencies --    727.7359               832.8724               889.4977
 Red. masses --      3.7330                 4.9511                 3.4639
 Frc consts  --      1.1648                 2.0235                 1.6148
 IR Inten    --     38.5382                36.7091                25.6223

                     31                     32                     33
                      A                      A                      A
 Frequencies --    906.8790               935.1334               938.4785
 Red. masses --      3.2161                 4.1440                 4.2817
 Frc consts  --      1.5584                 2.1351                 2.2218
 IR Inten    --     87.0421                57.6820                70.1593

                     34                     35                     36
                      A                      A                      A
 Frequencies --    942.8314               986.8375              1003.1019
 Red. masses --      3.9431                 3.1669                 3.1408
 Frc consts  --      2.0651                 1.8171                 1.8620
 IR Inten    --      9.4001                12.6545                14.7835

                     37                     38                     39
                      A                      A                      A
 Frequencies --   1023.2148              1065.0604              1097.7877
 Red. masses --      2.3470                 3.3017                 3.6899
 Frc consts  --      1.4478                 2.2067                 2.6200
 IR Inten    --     15.7381                 8.7463                59.0986

                     40                     41                     42
                      A                      A                      A
 Frequencies --   1106.9114              1115.5720              1135.5712
 Red. masses --      2.7876                 4.0213                 3.2900
 Frc consts  --      2.0124                 2.9485                 2.4996
 IR Inten    --     89.2973                76.2660               322.9027

                     43                     44                     45
                      A                      A                      A
 Frequencies --   1145.7645              1169.1777              1175.0954
 Red. masses --      3.4390                 2.0732                 1.6969
 Frc consts  --      2.6599                 1.6697                 1.3805
 IR Inten    --     53.1082                13.9206                26.3038

                     46                     47                     48
                      A                      A                      A
 Frequencies --   1182.3767              1185.6397              1192.6211
 Red. masses --      1.2750                 1.3014                 1.3346
 Frc consts  --      1.0502                 1.0778                 1.1184
 IR Inten    --      3.7627                 8.8572                 6.0122

                     49                     50                     51
                      A                      A                      A
 Frequencies --   1213.0108              1226.9148              1230.1882
 Red. masses --      1.4471                 1.6243                 1.6677
 Frc consts  --      1.2545                 1.4406                 1.4870
 IR Inten    --     12.2340                70.2227                27.1238

                     52                     53                     54
                      A                      A                      A
 Frequencies --   1234.0054              1241.5165              1276.3154
 Red. masses --      1.6500                 1.3922                 1.3708
 Frc consts  --      1.4803                 1.2643                 1.3157
 IR Inten    --     98.2171                18.8570                20.0369

                     55                     56                     57
                      A                      A                      A
 Frequencies --   1324.0192              1337.3390              1348.5638
 Red. masses --      1.2294                 1.2498                 1.2044
 Frc consts  --      1.2698                 1.3169                 1.2905
 IR Inten    --     16.4893                 1.7622                34.4698

                     58                     59                     60
                      A                      A                      A
 Frequencies --   1369.0019              1376.9939              1397.6974
 Red. masses --      1.2845                 1.2284                 1.2504
 Frc consts  --      1.4184                 1.3723                 1.4392
 IR Inten    --      8.4376                13.5263                 2.3405

                     61                     62                     63
                      A                      A                      A
 Frequencies --   1418.8730              1428.4641              1437.3880
 Red. masses --      1.3418                 1.3407                 1.2682
 Frc consts  --      1.5915                 1.6118                 1.5438
 IR Inten    --     21.1847                38.8070                 6.4350

                     64                     65                     66
                      A                      A                      A
 Frequencies --   1493.7422              1495.2067              1497.7653
 Red. masses --      1.0975                 1.1198                 1.1026
 Frc consts  --      1.4428                 1.4750                 1.4573
 IR Inten    --      2.0486                 1.6510                 7.6675

                     67                     68                     69
                      A                      A                      A
 Frequencies --   1501.4424              1510.0235              1512.8117
 Red. masses --      1.0937                 1.0844                 1.0618
 Frc consts  --      1.4527                 1.4568                 1.4317
 IR Inten    --      2.4122                14.5506                10.7731

                     70                     71                     72
                      A                      A                      A
 Frequencies --   1514.2805              1517.1809              1524.1816
 Red. masses --      1.0810                 1.0926                 1.0551
 Frc consts  --      1.4605                 1.4818                 1.4441
 IR Inten    --     10.5804                 9.5535                14.1362

                     73                     74                     75
                      A                      A                      A
 Frequencies --   1526.0370              1528.7928              1533.9908
 Red. masses --      1.0913                 1.0525                 1.0630
 Frc consts  --      1.4974                 1.4493                 1.4738
 IR Inten    --      9.2689                10.6798                18.0329

                     76                     77                     78
                      A                      A                      A
 Frequencies --   1535.4242              1629.1441              2963.9929
 Red. masses --      1.0458                 5.8961                 1.0556
 Frc consts  --      1.4526                 9.2201                 5.4638
 IR Inten    --     13.9965               169.4351               117.6297

                     79                     80                     81
                      A                      A                      A
 Frequencies --   3022.0942              3041.2011              3050.8450
 Red. masses --      1.0356                 1.0617                 1.0344
 Frc consts  --      5.5728                 5.7856                 5.6724
 IR Inten    --     45.3339                23.7902                48.0298

                     82                     83                     84
                      A                      A                      A
 Frequencies --   3055.4880              3074.2407              3078.2245
 Red. masses --      1.0323                 1.0834                 1.1048
 Frc consts  --      5.6785                 6.0329                 6.1679
 IR Inten    --     57.4427                49.6320                78.2769

                     85                     86                     87
                      A                      A                      A
 Frequencies --   3092.7950              3104.4902              3108.1791
 Red. masses --      1.0863                 1.1028                 1.0877
 Frc consts  --      6.1218                 6.2623                 6.1910
 IR Inten    --     10.6503                19.9586                13.6644

                     88                     89                     90
                      A                      A                      A
 Frequencies --   3115.8284              3128.1593              3129.9358
 Red. masses --      1.1038                 1.1047                 1.0895
 Frc consts  --      6.3136                 6.3688                 6.2883
 IR Inten    --     37.9565                28.7612                 4.3212

                     91                     92                     93
                      A                      A                      A
 Frequencies --   3158.5952              3166.3880              3168.5521
 Red. masses --      1.0994                 1.0935                 1.0955
 Frc consts  --      6.4623                 6.4596                 6.4802
 IR Inten    --     29.0548                 9.0336                11.6591

                     94                     95                     96
                      A                      A                      A
 Frequencies --   3170.3861              3183.5476              3188.7367
 Red. masses --      1.0973                 1.1033                 1.0954
 Frc consts  --      6.4985                 6.5880                 6.5622
 IR Inten    --     17.1903                 9.9649                 2.2634

 - Thermochemistry -
 -------------------
 Temperature   298.150 Kelvin.  Pressure   1.00000 Atm.
 Atom     1 has atomic number  6 and mass  12.00000

 Molecular mass:   219.12325 amu.
 Principal axes and moments of inertia in atomic units:
                           1         2         3
     Eigenvalues --  2567.182804082.043054389.80657
           X            0.99949  -0.01098   0.03010
           Y            0.00751   0.99354   0.11325
           Z           -0.03115  -0.11297   0.99311
 This molecule is an asymmetric top.
 Rotational symmetry number  1.
 Warning -- assumption of classical behavior for rotation
           may cause significant error
 Rotational temperatures (Kelvin)      0.03374     0.02122     0.01973
 Rotational constants (GHZ):           0.70300     0.44212     0.41112
 Zero-point vibrational energy     774127.3 (Joules/Mol)
                                  185.02086 (Kcal/Mol)
 Warning -- explicit consideration of  26 degrees of freedom as
           vibrations may cause significant error
 Vibrational temperatures:     60.29    89.86   111.85   124.40   156.51
          (Kelvin)            172.82   193.41   205.25   227.05   258.44
                              285.50   317.37   325.17   368.39   386.05
                              421.53   427.17   462.95   498.48   506.48
                              625.28   650.70   699.55   709.03   778.35
                              807.41   898.25  1047.05  1198.32  1279.79
                             1304.80  1345.45  1350.26  1356.52  1419.84
                             1443.24  1472.18  1532.38  1579.47  1592.60
                             1605.06  1633.83  1648.50  1682.19  1690.70
                             1701.18  1705.87  1715.92  1745.25  1765.26
                             1769.97  1775.46  1786.27  1836.33  1904.97
                             1924.13  1940.28  1969.69  1981.19  2010.97
                             2041.44  2055.24  2068.08  2149.16  2151.27
                             2154.95  2160.24  2172.59  2176.60  2178.71
                             2182.88  2192.96  2195.63  2199.59  2207.07
                             2209.13  2343.98  4264.52  4348.12  4375.61
                             4389.49  4396.17  4423.15  4428.88  4449.84
                             4466.67  4471.98  4482.98  4500.72  4503.28
                             4544.51  4555.73  4558.84  4561.48  4580.41
                             4587.88

 Zero-point correction=                           0.294850 (Hartree/Particle)
 Thermal correction to Energy=                    0.311885
 Thermal correction to Enthalpy=                  0.312829
 Thermal correction to Gibbs Free Energy=         0.250461
 Sum of electronic and zero-point Energies=           -768.020317
 Sum of electronic and thermal Energies=              -768.003281
 Sum of electronic and thermal Enthalpies=            -768.002337
 Sum of electronic and thermal Free Energies=         -768.064705

                     E (Thermal)             CV                S
                      KCal/Mol        Cal/Mol-Kelvin    Cal/Mol-Kelvin
 Total                  195.711             61.596            131.266
 Electronic               0.000              0.000              0.000
 Translational            0.889              2.981             42.056
 Rotational               0.889              2.981             32.198
 Vibrational            193.934             55.635             57.012
 Vibration     1          0.595              1.980              5.167
 Vibration     2          0.597              1.972              4.378
 Vibration     3          0.599              1.964              3.947
 Vibration     4          0.601              1.959              3.739
 Vibration     5          0.606              1.942              3.291
 Vibration     6          0.609              1.932              3.098
 Vibration     7          0.613              1.919              2.882
 Vibration     8          0.616              1.911              2.768
 Vibration     9          0.621              1.894              2.576
 Vibration    10          0.629              1.867              2.332
 Vibration    11          0.637              1.842              2.148
 Vibration    12          0.647              1.810              1.954
 Vibration    13          0.650              1.801              1.910
 Vibration    14          0.666              1.753              1.689
 Vibration    15          0.673              1.731              1.607
 Vibration    16          0.688              1.687              1.457
 Vibration    17          0.691              1.680              1.434
 Vibration    18          0.707              1.632              1.301
 Vibration    19          0.724              1.582              1.182
 Vibration    20          0.729              1.571              1.157
 Vibration    21          0.795              1.395              0.844
 Vibration    22          0.811              1.356              0.789
 Vibration    23          0.842              1.281              0.694
 Vibration    24          0.849              1.266              0.676
 Vibration    25          0.896              1.159              0.563
 Vibration    26          0.917              1.115              0.521

                           ! Non-Optimized Parameters !
 Normal termination of Gaussian 16 at Fri May 24 09:24:46 2019.
