 Gaussian 16, Revision A.03,
 Gaussian 16:  ES64L-G16RevA.03 25-Dec-2016

 -------------------------------------------------------------------
 #p b3lyp 6-31g* opt freq=noraman scrf=(pcm,solvent=tetrahydrofuran)
 -------------------------------------------------------------------

 -----
 title
 -----
 Symbolic Z-matrix:
 Charge =  1 Multiplicity = 1

 SCF Done:  E(RB3LYP) =  -768.322921879     A.U. after   13 cycles
 Optimization completed.
    -- Stationary point found.
 Normal termination of Gaussian 16 at Fri May 24 08:34:58 2019.

 --------------------------------------------------------------------
 #P Geom=AllCheck Guess=TCheck SCRF=Check GenChk RB3LYP/6-31G(d) Freq
 --------------------------------------------------------------------

 Structure from the checkpoint file:  "/scratch/Gau-28269.chk"
 -----
 title
 -----
 Charge =  1 Multiplicity = 1

                         Standard orientation:
 ---------------------------------------------------------------------
 Center     Atomic      Atomic             Coordinates (Angstroms)
 Number     Number       Type             X           Y           Z
 ---------------------------------------------------------------------
      1          6           0       -1.422116    0.462361   -0.305254
      2          6           0       -1.650764   -0.970864    0.237796
      3          6           0       -0.527442   -1.562013    1.017184
      4          6           0        1.039032   -0.167795   -0.159709
      5          6           0        0.018972    0.975718   -0.057225
      6          1           0       -0.675908   -2.384551    1.716256
      7          1           0       -2.601134   -1.046296    0.770631
      8          1           0       -1.537166    0.382098   -1.390708
      9          1           0        0.991235   -0.669983   -1.129277
     10          1           0        0.102556    1.414367    0.947458
     11          8           0        0.678141   -1.249367    0.824746
     12          8           0       -1.545271   -1.942068   -0.818731
     13          8           0       -2.433138    1.359591    0.105085
     14          8           0        0.406843    1.905044   -1.043077
     15          6           0        2.465404    0.217559    0.168482
     16          1           0        2.534653    0.533712    1.222004
     17          1           0        2.724975    1.078568   -0.463407
     18          8           0        3.284700   -0.896465   -0.093568
     19          6           0       -2.632091   -2.888094   -0.915036
     20          1           0       -2.386531   -3.522614   -1.766736
     21          1           0       -2.713446   -3.499860   -0.011888
     22          1           0       -3.570346   -2.354693   -1.095596
     23          6           0       -2.507190    1.685951    1.494335
     24          1           0       -2.551328    0.791633    2.130964
     25          1           0       -1.671562    2.316193    1.819102
     26          1           0       -3.436006    2.245007    1.618061
     27          6           0        0.025021    3.261419   -0.788145
     28          1           0        0.454552    3.851746   -1.599219
     29          1           0       -1.063442    3.375407   -0.786650
     30          1           0        0.434839    3.609630    0.169242
     31          6           0        4.655176   -0.641873    0.187952
     32          1           0        5.201210   -1.556787   -0.050010
     33          1           0        5.042669    0.182982   -0.426806
     34          1           0        4.805956   -0.394651    1.248651
 ---------------------------------------------------------------------

 SCF Done:  E(RB3LYP) =  -768.322921879     A.U. after    1 cycles

 The electronic state is 1-A.
 Alpha  occ. eigenvalues --  -19.32044 -19.23644 -19.19411 -19.19133 -19.17885
 Alpha  occ. eigenvalues --  -10.39442 -10.31862 -10.31626 -10.29604 -10.29165
 Alpha  occ. eigenvalues --  -10.27172 -10.26981 -10.25700 -10.24908 -10.24374
 Alpha  occ. eigenvalues --   -1.21084  -1.10542  -1.08209  -1.06628  -1.06243
 Alpha  occ. eigenvalues --   -0.86988  -0.85455  -0.77476  -0.75046  -0.73779
 Alpha  occ. eigenvalues --   -0.71279  -0.68836  -0.68051  -0.65559  -0.62229
 Alpha  occ. eigenvalues --   -0.60743  -0.58641  -0.56555  -0.54500  -0.52925
 Alpha  occ. eigenvalues --   -0.52608  -0.51134  -0.50819  -0.49634  -0.49168
 Alpha  occ. eigenvalues --   -0.48876  -0.48288  -0.46458  -0.46120  -0.45800
 Alpha  occ. eigenvalues --   -0.44124  -0.42856  -0.41945  -0.41569  -0.40546
 Alpha  occ. eigenvalues --   -0.40007  -0.38590  -0.35774  -0.35355  -0.34997
 Alpha  occ. eigenvalues --   -0.33640  -0.31579  -0.28711  -0.27709
 Alpha virt. eigenvalues --   -0.14436   0.01139   0.03268   0.05078   0.06139
 Alpha virt. eigenvalues --    0.07138   0.07873   0.08942   0.09109   0.10077
 Alpha virt. eigenvalues --    0.11027   0.11718   0.11945   0.12603   0.13015

 Mulliken charges:
               1
     1  C    0.141019
     2  C   -0.000679
     3  C    0.312400
     4  C    0.048075
     5  C    0.080040
     6  H    0.279139
     7  H    0.229707
     8  H    0.208497
     9  H    0.238518
    10  H    0.173342
    11  O   -0.317189
    12  O   -0.462323
    13  O   -0.479040
    14  O   -0.487301
    15  C   -0.019203
    16  H    0.160798
    17  H    0.184799
    18  O   -0.483386
    19  C   -0.233997
    20  H    0.207444
    21  H    0.186974
    22  H    0.192585
    23  C   -0.240285
    24  H    0.154548
    25  H    0.167495
    26  H    0.193839
    27  C   -0.226724
    28  H    0.183287
    29  H    0.174683
    30  H    0.159331
    31  C   -0.210086
    32  H    0.176780
    33  H    0.154559
    34  H    0.152354
 Sum of Mulliken charges =   1.00000

 Dipole moment (field-independent basis, Debye):
    X=             -3.1551    Y=             -2.7861    Z=              4.4799  Tot=              6.1471
 Quadrupole moment (field-independent basis, Debye-Ang):
   XX=            -61.9575   YY=            -64.3011   ZZ=            -80.2940
   XY=             13.7469   XZ=             -2.4835   YZ=             -0.0544

  Exact polarizability: 161.338   9.164 149.667   0.876   1.525 125.744
 Approx polarizability: 171.314   7.157 160.421   3.803   2.748 158.885

                      1                      2                      3
                      A                      A                      A
 Frequencies --     48.4489                57.7716                62.1205
 Red. masses --      3.8409                 4.0356                 3.1694
 Frc consts  --      0.0053                 0.0079                 0.0072
 IR Inten    --      1.2498                 0.4608                 3.3589

                      4                      5                      6
                      A                      A                      A
 Frequencies --     83.1914                95.1895               100.2535
 Red. masses --      2.7318                 2.4998                 2.2259
 Frc consts  --      0.0111                 0.0133                 0.0132
 IR Inten    --      1.2054                 1.8858                 7.9991

                      7                      8                      9
                      A                      A                      A
 Frequencies --    120.8485               143.5494               169.7464
 Red. masses --      2.7859                 2.3349                 1.8904
 Frc consts  --      0.0240                 0.0283                 0.0321
 IR Inten    --      0.9899                13.8410                 7.8728

                     10                     11                     12
                      A                      A                      A
 Frequencies --    180.5607               189.0965               211.1713
 Red. masses --      2.3780                 1.4380                 1.6499
 Frc consts  --      0.0457                 0.0303                 0.0433
 IR Inten    --      4.0315                 6.1513                 0.6735

                     13                     14                     15
                      A                      A                      A
 Frequencies --    229.6448               239.5114               254.0595
 Red. masses --      1.3878                 1.7885                 2.3531
 Frc consts  --      0.0431                 0.0604                 0.0895
 IR Inten    --      8.6012                13.5958                 8.8209

                     16                     17                     18
                      A                      A                      A
 Frequencies --    292.4105               300.8594               312.7320
 Red. masses --      4.7624                 3.2999                 3.8663
 Frc consts  --      0.2399                 0.1760                 0.2228
 IR Inten    --     12.1814                15.1617                13.8967

                     19                     20                     21
                      A                      A                      A
 Frequencies --    336.5106               355.0747               390.4286
 Red. masses --      3.7928                 3.3180                 3.1409
 Frc consts  --      0.2531                 0.2465                 0.2821
 IR Inten    --     10.5751                 8.2902                17.3627

                     22                     23                     24
                      A                      A                      A
 Frequencies --    427.3325               446.6673               503.6855
 Red. masses --      4.8568                 4.3436                 4.9750
 Frc consts  --      0.5226                 0.5106                 0.7436
 IR Inten    --      0.5871                12.4541                25.3666

                     25                     26                     27
                      A                      A                      A
 Frequencies --    545.8250               553.1980               642.3871
 Red. masses --      3.8467                 3.0984                 3.7196
 Frc consts  --      0.6752                 0.5587                 0.9043
 IR Inten    --     27.2011                 4.1905                20.9924

                     28                     29                     30
                      A                      A                      A
 Frequencies --    748.6102               821.2537               872.9350
 Red. masses --      4.0712                 4.6837                 4.5202
 Frc consts  --      1.3443                 1.8612                 2.0294
 IR Inten    --     66.4493                62.9529                33.3790

                     31                     32                     33
                      A                      A                      A
 Frequencies --    931.9185               943.4746               974.2117
 Red. masses --      2.4186                 3.7791                 4.1728
 Frc consts  --      1.2376                 1.9820                 2.3334
 IR Inten    --     27.3723                24.1674                15.2010

                     34                     35                     36
                      A                      A                      A
 Frequencies --    983.1204              1006.4908              1029.2125
 Red. masses --      3.1786                 2.6808                 3.0500
 Frc consts  --      1.8101                 1.6001                 1.9035
 IR Inten    --     36.9235                55.4736                16.6148

                     37                     38                     39
                      A                      A                      A
 Frequencies --   1055.0443              1080.5086              1091.1983
 Red. masses --      2.2481                 4.8549                 3.0827
 Frc consts  --      1.4744                 3.3396                 2.1627
 IR Inten    --     96.6587               185.3192                79.1093

                     40                     41                     42
                      A                      A                      A
 Frequencies --   1129.9711              1147.6362              1152.1757
 Red. masses --      2.7305                 2.6590                 3.5717
 Frc consts  --      2.0541                 2.0634                 2.7936
 IR Inten    --     17.6592               144.6164                73.9341

                     43                     44                     45
                      A                      A                      A
 Frequencies --   1156.9205              1168.3676              1180.7140
 Red. masses --      3.0271                 3.4126                 1.2710
 Frc consts  --      2.3872                 2.7447                 1.0440
 IR Inten    --    142.2906               147.9494                 3.0788

                     46                     47                     48
                      A                      A                      A
 Frequencies --   1185.8073              1187.4384              1194.1921
 Red. masses --      1.3580                 1.2563                 1.3382
 Frc consts  --      1.1250                 1.0437                 1.1244
 IR Inten    --     13.3682                 2.7615                 3.7579

                     49                     50                     51
                      A                      A                      A
 Frequencies --   1203.9949              1229.3729              1232.2177
 Red. masses --      1.3920                 1.5937                 1.6335
 Frc consts  --      1.1889                 1.4191                 1.4613
 IR Inten    --      0.6835                61.2745                 9.0323

                     52                     53                     54
                      A                      A                      A
 Frequencies --   1237.3299              1265.0740              1280.0102
 Red. masses --      1.5743                 1.3986                 1.1868
 Frc consts  --      1.4201                 1.3187                 1.1456
 IR Inten    --     27.1319                11.9196                16.3461

                     55                     56                     57
                      A                      A                      A
 Frequencies --   1300.0664              1346.0194              1348.3958
 Red. masses --      1.3323                 1.2363                 1.1982
 Frc consts  --      1.3267                 1.3197                 1.2835
 IR Inten    --      4.2556                30.6837                43.9291

                     58                     59                     60
                      A                      A                      A
 Frequencies --   1358.2550              1385.2230              1419.2028
 Red. masses --      1.5858                 1.2517                 1.2667
 Frc consts  --      1.7237                 1.4151                 1.5032
 IR Inten    --     17.6812                 4.9210                11.1943

                     61                     62                     63
                      A                      A                      A
 Frequencies --   1428.0039              1436.7824              1455.0292
 Red. masses --      1.3687                 1.3648                 1.4763
 Frc consts  --      1.6444                 1.6599                 1.8415
 IR Inten    --     39.3027                16.4315                34.6951

                     64                     65                     66
                      A                      A                      A
 Frequencies --   1493.7434              1498.6949              1501.6741
 Red. masses --      1.1354                 1.1516                 1.1579
 Frc consts  --      1.4926                 1.5240                 1.5384
 IR Inten    --     22.9504                 1.6880                 1.3713

                     67                     68                     69
                      A                      A                      A
 Frequencies --   1507.1401              1509.5141              1513.1245
 Red. masses --      1.0939                 1.0469                 1.0896
 Frc consts  --      1.4640                 1.4056                 1.4698
 IR Inten    --      4.7862                 8.4637                 3.6548

                     70                     71                     72
                      A                      A                      A
 Frequencies --   1513.9295              1518.1703              1523.8049
 Red. masses --      1.0507                 1.0566                 1.0614
 Frc consts  --      1.4189                 1.4348                 1.4520
 IR Inten    --     12.8825                20.4527                18.1414

                     73                     74                     75
                      A                      A                      A
 Frequencies --   1527.5106              1531.9082              1537.3040
 Red. masses --      1.0552                 1.0474                 1.0535
 Frc consts  --      1.4506                 1.4481                 1.4669
 IR Inten    --     10.7821                11.6192                16.9248

                     76                     77                     78
                      A                      A                      A
 Frequencies --   1544.1418              1634.7515              3001.9876
 Red. masses --      1.0986                 5.8655                 1.0612
 Frc consts  --      1.5434                 9.2354                 5.6346
 IR Inten    --      2.7600               305.2908                40.3467

                     79                     80                     81
                      A                      A                      A
 Frequencies --   3016.5148              3030.3549              3039.2609
 Red. masses --      1.0381                 1.0432                 1.0378
 Frc consts  --      5.5655                 5.6443                 5.6479
 IR Inten    --     71.4797                17.9426                56.8096

                     82                     83                     84
                      A                      A                      A
 Frequencies --   3043.0383              3060.2325              3067.4172
 Red. masses --      1.0777                 1.0977                 1.0302
 Frc consts  --      5.8800                 6.0566                 5.7111
 IR Inten    --     53.3798                59.0367                45.3813

                     85                     86                     87
                      A                      A                      A
 Frequencies --   3069.8895              3098.0820              3102.3564
 Red. masses --      1.1061                 1.1013                 1.0857
 Frc consts  --      6.1415                 6.2276                 6.1566
 IR Inten    --     36.2305                60.6717                 6.5300

                     88                     89                     90
                      A                      A                      A
 Frequencies --   3117.2456              3130.5985              3133.1328
 Red. masses --      1.1000                 1.0867                 1.0880
 Frc consts  --      6.2978                 6.2749                 6.2929
 IR Inten    --     35.8112                 1.1308                 2.8554

                     91                     92                     93
                      A                      A                      A
 Frequencies --   3145.9154              3157.0349              3164.7083
 Red. masses --      1.1082                 1.0992                 1.1005
 Frc consts  --      6.4622                 6.4549                 6.4939
 IR Inten    --     21.8375                29.9614                21.4279

                     94                     95                     96
                      A                      A                      A
 Frequencies --   3167.8957              3189.2495              3215.5857
 Red. masses --      1.1039                 1.1055                 1.0949
 Frc consts  --      6.5269                 6.6250                 6.6705
 IR Inten    --     22.4029                 8.2883                 2.0819

 - Thermochemistry -
 -------------------
 Temperature   298.150 Kelvin.  Pressure   1.00000 Atm.
 Atom     1 has atomic number  6 and mass  12.00000

 Molecular mass:   219.12325 amu.
 Principal axes and moments of inertia in atomic units:
                           1         2         3
     Eigenvalues --  2608.883534136.398135830.16027
           X            0.99968   0.02529  -0.00238
           Y           -0.02525   0.99959   0.01364
           Z            0.00273  -0.01358   0.99990
 This molecule is an asymmetric top.
 Rotational symmetry number  1.
 Warning -- assumption of classical behavior for rotation
           may cause significant error
 Rotational temperatures (Kelvin)      0.03320     0.02094     0.01486
 Rotational constants (GHZ):           0.69177     0.43631     0.30955
 Zero-point vibrational energy     774967.0 (Joules/Mol)
                                  185.22156 (Kcal/Mol)
 Warning -- explicit consideration of  26 degrees of freedom as
           vibrations may cause significant error
 Vibrational temperatures:     69.71    83.12    89.38   119.69   136.96
          (Kelvin)            144.24   173.87   206.54   244.23   259.79
                              272.07   303.83   330.41   344.60   365.53
                              420.71   432.87   449.95   484.16   510.87
                              561.74   614.84   642.65   724.69   785.32
                              795.93   924.25  1077.08  1181.60  1255.96
                             1340.82  1357.45  1401.67  1414.49  1448.12
                             1480.81  1517.97  1554.61  1569.99  1625.78
                             1651.19  1657.72  1664.55  1681.02  1698.78
                             1706.11  1708.46  1718.18  1732.28  1768.79
                             1772.89  1780.24  1820.16  1841.65  1870.51
                             1936.62  1940.04  1954.23  1993.03  2041.92
                             2054.58  2067.21  2093.46  2149.16  2156.29
                             2160.57  2168.44  2171.85  2177.05  2178.21
                             2184.31  2192.42  2197.75  2204.07  2211.84
                             2221.68  2352.04  4319.19  4340.09  4360.00
                             4372.82  4378.25  4402.99  4413.33  4416.89
                             4457.45  4463.60  4485.02  4504.23  4507.88
                             4526.27  4542.27  4553.31  4557.90  4588.62
                             4626.51

 Zero-point correction=                           0.295169 (Hartree/Particle)
 Thermal correction to Energy=                    0.312423
 Thermal correction to Enthalpy=                  0.313368
 Thermal correction to Gibbs Free Energy=         0.250072
 Sum of electronic and zero-point Energies=           -768.027753
 Sum of electronic and thermal Energies=              -768.010498
 Sum of electronic and thermal Enthalpies=            -768.009554
 Sum of electronic and thermal Free Energies=         -768.072850

                     E (Thermal)             CV                S
                      KCal/Mol        Cal/Mol-Kelvin    Cal/Mol-Kelvin
 Total                  196.049             61.586            133.217
 Electronic               0.000              0.000              0.000
 Translational            0.889              2.981             42.056
 Rotational               0.889              2.981             32.509
 Vibrational            194.271             55.625             58.652
 Vibration     1          0.595              1.978              4.880
 Vibration     2          0.596              1.974              4.532
 Vibration     3          0.597              1.972              4.389
 Vibration     4          0.600              1.961              3.814
 Vibration     5          0.603              1.953              3.550
 Vibration     6          0.604              1.949              3.449
 Vibration     7          0.609              1.932              3.087
 Vibration     8          0.616              1.910              2.756
 Vibration     9          0.625              1.880              2.438
 Vibration    10          0.630              1.866              2.323
 Vibration    11          0.633              1.855              2.237
 Vibration    12          0.643              1.824              2.034
 Vibration    13          0.652              1.796              1.882
 Vibration    14          0.657              1.780              1.807
 Vibration    15          0.665              1.756              1.702
 Vibration    16          0.688              1.688              1.460
 Vibration    17          0.693              1.672              1.412
 Vibration    18          0.701              1.649              1.348
 Vibration    19          0.717              1.603              1.229
 Vibration    20          0.731              1.565              1.144
 Vibration    21          0.758              1.491              0.999
 Vibration    22          0.789              1.411              0.867
 Vibration    23          0.806              1.368              0.806
 Vibration    24          0.859              1.242              0.649
 Vibration    25          0.901              1.149              0.553
 Vibration    26          0.909              1.133              0.538

 Optimization completed.
    -- Stationary point found.
 Normal termination of Gaussian 16 at Fri May 24 08:54:20 2019.
