 Gaussian 16, Revision A.03,
 Gaussian 16:  ES64L-G16RevA.03 25-Dec-2016

 ----------------------------------------------------------------------
 #p b3lyp 6-31g* opt=(maxstep=1,calcfc) freq=noraman scrf=(pcm,solvent=
 tetrahydrofuran)
 ----------------------------------------------------------------------

 -----
 title
 -----
 Symbolic Z-matrix:
 Charge =  1 Multiplicity = 1

 SCF Done:  E(RB3LYP) =  -768.317719108     A.U. after   14 cycles
 SCF Done:  E(RB3LYP) =  -768.317718428     A.U. after    7 cycles
 SCF Done:  E(RB3LYP) =  -768.317719065     A.U. after    7 cycles
 Optimization completed.
    -- Stationary point found.
 Normal termination of Gaussian 16 at Sat May 25 18:44:03 2019.

 --------------------------------------------------------------------
 #P Geom=AllCheck Guess=TCheck SCRF=Check GenChk RB3LYP/6-31G(d) Freq
 --------------------------------------------------------------------

 Structure from the checkpoint file:  "/scratch/Gau-193717.chk"
 -----
 title
 -----
 Charge =  1 Multiplicity = 1

                         Standard orientation:
 ---------------------------------------------------------------------
 Center     Atomic      Atomic             Coordinates (Angstroms)
 Number     Number       Type             X           Y           Z
 ---------------------------------------------------------------------
      1          6           0        1.163717    0.814558    0.509576
      2          6           0        1.945432   -0.233855   -0.300931
      3          6           0        1.357863   -0.188749   -1.689407
      4          6           0       -0.849000   -0.295311   -0.691099
      5          6           0       -0.371827    0.566648    0.507120
      6          1           0        1.936407   -0.150628   -2.613226
      7          1           0        3.007887    0.022183   -0.324527
      8          1           0        1.534285    0.835733    1.541934
      9          1           0       -0.859595   -1.352546   -0.426507
     10          1           0       -0.834454    1.550694    0.395742
     11          8           0        0.116738   -0.254758   -1.857897
     12          8           0        1.705025   -1.538455    0.181707
     13          8           0        1.466993    2.011715   -0.190360
     14          8           0       -0.925825    0.075916    1.709775
     15          6           0       -2.165310    0.179170   -1.338788
     16          1           0       -2.475393   -0.547159   -2.104058
     17          1           0       -1.976597    1.139731   -1.829610
     18          8           0       -3.171768    0.404702   -0.388158
     19          6           0        2.767487   -2.483685   -0.046268
     20          1           0        2.456986   -3.398544    0.458875
     21          1           0        2.906370   -2.685180   -1.113474
     22          1           0        3.703453   -2.117896    0.388722
     23          6           0        1.347431    3.212169    0.575962
     24          1           0        1.645995    4.027341   -0.084822
     25          1           0        0.317759    3.381730    0.913887
     26          1           0        2.013320    3.180510    1.447355
     27          6           0       -0.409746   -1.124435    2.291355
     28          1           0       -0.994453   -1.271746    3.201231
     29          1           0       -0.538621   -1.996554    1.640241
     30          1           0        0.649071   -1.035319    2.553159
     31          6           0       -3.799882   -0.774836    0.110374
     32          1           0       -4.650173   -0.440353    0.707808
     33          1           0       -4.161180   -1.407142   -0.711968
     34          1           0       -3.127355   -1.357869    0.751346
 ---------------------------------------------------------------------

 SCF Done:  E(RB3LYP) =  -768.317719065     A.U. after    1 cycles

 The electronic state is 1-A.
 Alpha  occ. eigenvalues --  -19.33081 -19.22182 -19.19827 -19.18993 -19.18332
 Alpha  occ. eigenvalues --  -10.39671 -10.31591 -10.31505 -10.29544 -10.29203
 Alpha  occ. eigenvalues --  -10.27469 -10.26633 -10.25487 -10.24884 -10.24474
 Alpha  occ. eigenvalues --   -1.21778  -1.10092  -1.08037  -1.06918  -1.06222
 Alpha  occ. eigenvalues --   -0.86639  -0.85386  -0.76714  -0.75122  -0.73988
 Alpha  occ. eigenvalues --   -0.71533  -0.69070  -0.67887  -0.65956  -0.60932
 Alpha  occ. eigenvalues --   -0.60626  -0.58551  -0.57138  -0.54334  -0.53611
 Alpha  occ. eigenvalues --   -0.51991  -0.51340  -0.50985  -0.49704  -0.49529
 Alpha  occ. eigenvalues --   -0.48465  -0.47709  -0.46843  -0.46035  -0.45729
 Alpha  occ. eigenvalues --   -0.44069  -0.43418  -0.42542  -0.40928  -0.40333
 Alpha  occ. eigenvalues --   -0.39871  -0.37449  -0.36860  -0.34729  -0.34259
 Alpha  occ. eigenvalues --   -0.32859  -0.30985  -0.29409  -0.28141
 Alpha virt. eigenvalues --   -0.15595  -0.00211   0.04096   0.04933   0.05856
 Alpha virt. eigenvalues --    0.07603   0.08480   0.08780   0.10142   0.10855
 Alpha virt. eigenvalues --    0.10941   0.11557   0.11958   0.12582   0.13277

 Mulliken charges:
               1
     1  C    0.060093
     2  C    0.053220
     3  C    0.307731
     4  C    0.032038
     5  C    0.128600
     6  H    0.280393
     7  H    0.217576
     8  H    0.199305
     9  H    0.236141
    10  H    0.204200
    11  O   -0.299955
    12  O   -0.474446
    13  O   -0.498079
    14  O   -0.479318
    15  C   -0.046990
    16  H    0.172872
    17  H    0.188276
    18  O   -0.460655
    19  C   -0.230362
    20  H    0.200099
    21  H    0.176892
    22  H    0.182938
    23  C   -0.224551
    24  H    0.187940
    25  H    0.168750
    26  H    0.169373
    27  C   -0.226424
    28  H    0.182493
    29  H    0.158786
    30  H    0.162827
    31  C   -0.223049
    32  H    0.180962
    33  H    0.155670
    34  H    0.156651
 Sum of Mulliken charges =   1.00000

 Dipole moment (field-independent basis, Debye):
    X=              5.9772    Y=             -2.8645    Z=             -3.3168  Tot=              7.4116
 Quadrupole moment (field-independent basis, Debye-Ang):
   XX=            -65.2222   YY=            -70.8308   ZZ=            -74.7743
   XY=              1.2857   XZ=             -2.6719   YZ=              1.8479

  Exact polarizability: 153.813   0.368 139.992  -5.410  -4.963 135.609
 Approx polarizability: 167.556  -0.063 157.650  -7.544  -6.735 160.818

                      1                      2                      3
                      A                      A                      A
 Frequencies --     14.9003                62.3233                78.8127
 Red. masses --      3.9193                 3.3921                 3.2861
 Frc consts  --      0.0005                 0.0078                 0.0120
 IR Inten    --      0.4028                 1.8544                 3.4220

                      4                      5                      6
                      A                      A                      A
 Frequencies --     95.6942               106.1194               119.7921
 Red. masses --      2.5887                 2.7944                 2.2897
 Frc consts  --      0.0140                 0.0185                 0.0194
 IR Inten    --      8.1885                 4.3285                 0.0204

                      7                      8                      9
                      A                      A                      A
 Frequencies --    122.1346               138.5546               150.3208
 Red. masses --      2.3825                 2.3091                 1.7308
 Frc consts  --      0.0209                 0.0261                 0.0230
 IR Inten    --      2.3854                12.7615                 0.2289

                     10                     11                     12
                      A                      A                      A
 Frequencies --    158.3232               181.1683               183.2466
 Red. masses --      1.3409                 1.3168                 1.5813
 Frc consts  --      0.0198                 0.0255                 0.0313
 IR Inten    --      1.0058                 2.7447                 0.8125

                     13                     14                     15
                      A                      A                      A
 Frequencies --    214.5655               225.5610               247.1242
 Red. masses --      2.1784                 2.3568                 3.2604
 Frc consts  --      0.0591                 0.0706                 0.1173
 IR Inten    --      0.3994                 5.3387                 5.7948

                     16                     17                     18
                      A                      A                      A
 Frequencies --    275.1261               303.8909               332.5229
 Red. masses --      3.9428                 3.4265                 3.2685
 Frc consts  --      0.1758                 0.1864                 0.2129
 IR Inten    --      8.1830                29.3926                 8.6489

                     19                     20                     21
                      A                      A                      A
 Frequencies --    359.4095               371.1365               419.2090
 Red. masses --      3.5424                 4.0533                 3.7146
 Frc consts  --      0.2696                 0.3289                 0.3846
 IR Inten    --      6.4118                27.7595                12.7398

                     22                     23                     24
                      A                      A                      A
 Frequencies --    432.0794               464.9247               483.7389
 Red. masses --      3.6275                 3.4501                 3.5089
 Frc consts  --      0.3990                 0.4394                 0.4838
 IR Inten    --      7.0707                16.8749                20.4280

                     25                     26                     27
                      A                      A                      A
 Frequencies --    519.8598               546.9137               605.9207
 Red. masses --      5.8333                 4.5742                 4.2250
 Frc consts  --      0.9288                 0.8061                 0.9139
 IR Inten    --      4.3233                20.0141                11.5100

                     28                     29                     30
                      A                      A                      A
 Frequencies --    792.5766               858.9313               875.5187
 Red. masses --      6.5656                 3.0659                 4.1517
 Frc consts  --      2.4300                 1.3327                 1.8750
 IR Inten    --     65.0772                12.7039                29.9116

                     31                     32                     33
                      A                      A                      A
 Frequencies --    883.0585               935.8351               939.1521
 Red. masses --      2.5998                 3.6599                 3.5541
 Frc consts  --      1.1945                 1.8885                 1.8469
 IR Inten    --     25.1439                44.6294                39.3885

                     34                     35                     36
                      A                      A                      A
 Frequencies --    956.8117               971.7375              1017.8453
 Red. masses --      3.9850                 3.2044                 2.6784
 Frc consts  --      2.1494                 1.7827                 1.6349
 IR Inten    --     43.5142                17.9821                16.7485

                     37                     38                     39
                      A                      A                      A
 Frequencies --   1045.2924              1078.5396              1103.4821
 Red. masses --      2.9469                 1.9739                 2.5685
 Frc consts  --      1.8971                 1.3529                 1.8427
 IR Inten    --     23.9100                39.8456                27.6794

                     40                     41                     42
                      A                      A                      A
 Frequencies --   1110.5188              1135.1531              1145.1081
 Red. masses --      5.0079                 4.1031                 3.7890
 Frc consts  --      3.6388                 3.1151                 2.9273
 IR Inten    --     32.7659               149.3315               290.4424

                     43                     44                     45
                      A                      A                      A
 Frequencies --   1147.4643              1170.3934              1183.9810
 Red. masses --      2.8462                 3.2192                 1.3485
 Frc consts  --      2.2080                 2.5981                 1.1138
 IR Inten    --     26.6655               156.7269                17.9252

                     46                     47                     48
                      A                      A                      A
 Frequencies --   1187.2415              1189.4137              1196.6215
 Red. masses --      1.2817                 1.3244                 1.2725
 Frc consts  --      1.0644                 1.1039                 1.0735
 IR Inten    --      6.2713                 8.9727                 6.9683

                     49                     50                     51
                      A                      A                      A
 Frequencies --   1219.0367              1224.7796              1228.9369
 Red. masses --      1.4916                 1.4688                 1.5928
 Frc consts  --      1.3060                 1.2981                 1.4173
 IR Inten    --     13.9042                35.6478                18.0519

                     52                     53                     54
                      A                      A                      A
 Frequencies --   1233.7476              1274.2545              1302.1894
 Red. masses --      1.7160                 1.7069                 1.4420
 Frc consts  --      1.5389                 1.6329                 1.4406
 IR Inten    --     79.8786                 6.3546                11.6788

                     55                     56                     57
                      A                      A                      A
 Frequencies --   1321.2215              1342.4575              1354.0139
 Red. masses --      1.2099                 1.1984                 1.1978
 Frc consts  --      1.2444                 1.2725                 1.2938
 IR Inten    --     23.4527                10.7853                 9.1753

                     58                     59                     60
                      A                      A                      A
 Frequencies --   1371.3459              1373.5699              1399.0915
 Red. masses --      1.2544                 1.2739                 1.4532
 Frc consts  --      1.3898                 1.4160                 1.6760
 IR Inten    --      8.9415                 5.2670                14.3394

                     61                     62                     63
                      A                      A                      A
 Frequencies --   1414.8605              1423.8107              1437.5174
 Red. masses --      1.2269                 1.3713                 1.2800
 Frc consts  --      1.4470                 1.6379                 1.5585
 IR Inten    --     10.5084                17.2778                27.7315

                     64                     65                     66
                      A                      A                      A
 Frequencies --   1497.2757              1497.6260              1498.2785
 Red. masses --      1.1161                 1.1174                 1.1072
 Frc consts  --      1.4741                 1.4765                 1.4644
 IR Inten    --      2.8283                 2.3965                 3.2683

                     67                     68                     69
                      A                      A                      A
 Frequencies --   1504.7858              1513.2647              1514.2244
 Red. masses --      1.0935                 1.0559                 1.0662
 Frc consts  --      1.4589                 1.4246                 1.4404
 IR Inten    --      3.1722                 9.5590                 5.9472

                     70                     71                     72
                      A                      A                      A
 Frequencies --   1516.1494              1520.6757              1524.2906
 Red. masses --      1.0543                 1.0534                 1.0886
 Frc consts  --      1.4279                 1.4352                 1.4903
 IR Inten    --      6.1768                 9.3096                 3.7878

                     73                     74                     75
                      A                      A                      A
 Frequencies --   1526.4572              1527.8978              1531.4077
 Red. masses --      1.0880                 1.0619                 1.0554
 Frc consts  --      1.4936                 1.4605                 1.4583
 IR Inten    --     25.0098                21.8066                 1.1070

                     76                     77                     78
                      A                      A                      A
 Frequencies --   1534.4729              1649.0307              3029.8904
 Red. masses --      1.0740                 6.8815                 1.0424
 Frc consts  --      1.4900                11.0254                 5.6384
 IR Inten    --     21.6004               177.9432                45.0860

                     79                     80                     81
                      A                      A                      A
 Frequencies --   3034.3447              3038.7043              3052.3585
 Red. masses --      1.0568                 1.0335                 1.0336
 Frc consts  --      5.7331                 5.6224                 5.6738
 IR Inten    --     62.0677                47.6950                42.0258

                     82                     83                     84
                      A                      A                      A
 Frequencies --   3056.8531              3073.4198              3094.3142
 Red. masses --      1.0320                 1.0858                 1.1045
 Frc consts  --      5.6816                 6.0428                 6.2307
 IR Inten    --     54.2521                16.3706                62.0231

                     85                     86                     87
                      A                      A                      A
 Frequencies --   3101.1103              3105.6876              3108.6137
 Red. masses --      1.1060                 1.0884                 1.0993
 Frc consts  --      6.2669                 6.1850                 6.2591
 IR Inten    --     42.9525                 8.1827                23.7832

                     88                     89                     90
                      A                      A                      A
 Frequencies --   3119.6081              3129.1396              3131.5537
 Red. masses --      1.1037                 1.1068                 1.0892
 Frc consts  --      6.3283                 6.3851                 6.2932
 IR Inten    --     50.0569                36.3502                 6.1831

                     91                     92                     93
                      A                      A                      A
 Frequencies --   3158.5182              3162.1382              3162.7407
 Red. masses --      1.1002                 1.1001                 1.0905
 Frc consts  --      6.4671                 6.4810                 6.4269
 IR Inten    --     25.7840                17.3150                14.3068

                     94                     95                     96
                      A                      A                      A
 Frequencies --   3169.3521              3184.1089              3202.0645
 Red. masses --      1.1016                 1.1036                 1.0951
 Frc consts  --      6.5193                 6.5925                 6.6153
 IR Inten    --     21.4143                11.0590                 1.3188

 - Thermochemistry -
 -------------------
 Temperature   298.150 Kelvin.  Pressure   1.00000 Atm.
 Atom     1 has atomic number  6 and mass  12.00000

 Molecular mass:   219.12325 amu.
 Principal axes and moments of inertia in atomic units:
                           1         2         3
     Eigenvalues --  2515.102943902.343944384.55643
           X            0.99994   0.01009   0.00474
           Y           -0.01007   0.99994  -0.00349
           Z           -0.00478   0.00345   0.99998
 This molecule is an asymmetric top.
 Rotational symmetry number  1.
 Warning -- assumption of classical behavior for rotation
           may cause significant error
 Rotational temperatures (Kelvin)      0.03444     0.02220     0.01975
 Rotational constants (GHZ):           0.71756     0.46248     0.41161
 Zero-point vibrational energy     774756.9 (Joules/Mol)
                                  185.17135 (Kcal/Mol)
 Warning -- explicit consideration of  27 degrees of freedom as
           vibrations may cause significant error
 Vibrational temperatures:     21.44    89.67   113.39   137.68   152.68
          (Kelvin)            172.35   175.72   199.35   216.28   227.79
                              260.66   263.65   308.71   324.53   355.56
                              395.85   437.23   478.43   517.11   533.98
                              603.15   621.67   668.92   695.99   747.96
                              786.89   871.78  1140.34  1235.81  1259.68
                             1270.52  1346.46  1351.23  1376.64  1398.11
                             1464.45  1503.94  1551.78  1587.66  1597.79
                             1633.23  1647.56  1650.95  1683.93  1703.48
                             1708.18  1711.30  1721.67  1753.92  1762.18
                             1768.17  1775.09  1833.37  1873.56  1900.94
                             1931.50  1948.12  1973.06  1976.26  2012.98
                             2035.67  2048.55  2068.27  2154.25  2154.75
                             2155.69  2165.05  2177.25  2178.63  2181.40
                             2187.91  2193.11  2196.23  2198.30  2203.35
                             2207.76  2372.59  4359.34  4365.75  4372.02
                             4391.66  4398.13  4421.97  4452.03  4461.81
                             4468.39  4472.60  4488.42  4502.13  4505.61
                             4544.40  4549.61  4550.48  4559.99  4581.22
                             4607.06

 Zero-point correction=                           0.295089 (Hartree/Particle)
 Thermal correction to Energy=                    0.312444
 Thermal correction to Enthalpy=                  0.313388
 Thermal correction to Gibbs Free Energy=         0.249384
 Sum of electronic and zero-point Energies=           -768.022630
 Sum of electronic and thermal Energies=              -768.005275
 Sum of electronic and thermal Enthalpies=            -768.004331
 Sum of electronic and thermal Free Energies=         -768.068335

                     E (Thermal)             CV                S
                      KCal/Mol        Cal/Mol-Kelvin    Cal/Mol-Kelvin
 Total                  196.061             61.780            134.706
 Electronic               0.000              0.000              0.000
 Translational            0.889              2.981             42.056
 Rotational               0.889              2.981             32.131
 Vibrational            194.284             55.818             60.519
 Vibration     1          0.593              1.986              7.219
 Vibration     2          0.597              1.972              4.382
 Vibration     3          0.600              1.963              3.920
 Vibration     4          0.603              1.952              3.540
 Vibration     5          0.605              1.944              3.339
 Vibration     6          0.609              1.933              3.104
 Vibration     7          0.610              1.931              3.066
 Vibration     8          0.614              1.915              2.824
 Vibration     9          0.618              1.902              2.668
 Vibration    10          0.621              1.893              2.570
 Vibration    11          0.630              1.865              2.316
 Vibration    12          0.631              1.863              2.295
 Vibration    13          0.644              1.819              2.004
 Vibration    14          0.650              1.802              1.914
 Vibration    15          0.661              1.768              1.751
 Vibration    16          0.677              1.719              1.564
 Vibration    17          0.695              1.666              1.395
 Vibration    18          0.714              1.611              1.248
 Vibration    19          0.734              1.556              1.125
 Vibration    20          0.743              1.531              1.075
 Vibration    21          0.782              1.428              0.895
 Vibration    22          0.793              1.400              0.852
 Vibration    23          0.822              1.328              0.752
 Vibration    24          0.840              1.286              0.700
 Vibration    25          0.875              1.206              0.610
 Vibration    26          0.902              1.146              0.551
 Vibration    27          0.965              1.019              0.440

                           ! Non-Optimized Parameters !
 Normal termination of Gaussian 16 at Sat May 25 18:54:17 2019.
