 Gaussian 16, Revision A.03,
 Gaussian 16:  ES64L-G16RevA.03 25-Dec-2016

 -------------------------------------------------------------------
 #p b3lyp 6-31g* opt freq=noraman scrf=(pcm,solvent=tetrahydrofuran)
 -------------------------------------------------------------------

 -----
 title
 -----
 Symbolic Z-matrix:
 Charge =  1 Multiplicity = 1

 SCF Done:  E(RB3LYP) =  -768.330276873     A.U. after   13 cycles
 Optimization completed.
    -- Stationary point found.
 Normal termination of Gaussian 16 at Fri May 24 08:34:53 2019.

 --------------------------------------------------------------------
 #P Geom=AllCheck Guess=TCheck SCRF=Check GenChk RB3LYP/6-31G(d) Freq
 --------------------------------------------------------------------

 Structure from the checkpoint file:  "/scratch/Gau-183496.chk"
 -----
 title
 -----
 Charge =  1 Multiplicity = 1

                         Standard orientation:
 ---------------------------------------------------------------------
 Center     Atomic      Atomic             Coordinates (Angstroms)
 Number     Number       Type             X           Y           Z
 ---------------------------------------------------------------------
      1          6           0       -0.927167    0.640691   -0.701650
      2          6           0       -1.168884    0.745027    0.848498
      3          6           0       -0.446803   -0.291983    1.647170
      4          6           0        1.067724   -0.842931   -0.148300
      5          6           0       -0.174390   -0.656057   -1.028402
      6          1           0       -0.769569   -0.504557    2.668135
      7          1           0       -0.638509    1.663649    1.165488
      8          1           0       -1.907278    0.599397   -1.191135
      9          1           0        1.488452   -1.842169   -0.258573
     10          1           0        0.144673   -0.633126   -2.078145
     11          8           0        0.589345   -0.904804    1.288831
     12          8           0       -2.484957    0.909348    1.292246
     13          8           0       -0.162882    1.718099   -1.180837
     14          8           0       -1.105536   -1.687302   -0.774770
     15          6           0        2.192282    0.173028   -0.239953
     16          1           0        1.860878    1.166862    0.087668
     17          1           0        2.470036    0.258527   -1.303141
     18          8           0        3.254111   -0.314113    0.545579
     19          6           0       -3.371051   -0.202718    1.079310
     20          1           0       -3.460639   -0.455736    0.018851
     21          1           0       -3.041020   -1.090704    1.633409
     22          1           0       -4.338703    0.120157    1.463770
     23          6           0       -0.893436    2.938475   -1.329198
     24          1           0       -0.193605    3.667063   -1.740248
     25          1           0       -1.736810    2.804015   -2.017983
     26          1           0       -1.271919    3.305834   -0.366168
     27          6           0       -0.831938   -2.944194   -1.402334
     28          1           0       -0.732134   -2.819799   -2.487286
     29          1           0        0.074931   -3.415191   -1.004590
     30          1           0       -1.688310   -3.583389   -1.183963
     31          6           0        4.381783    0.553800    0.539000
     32          1           0        4.126603    1.543955    0.942633
     33          1           0        4.785040    0.677082   -0.476060
     34          1           0        5.138509    0.089467    1.174086
 ---------------------------------------------------------------------

 SCF Done:  E(RB3LYP) =  -768.330276873     A.U. after    1 cycles

 The electronic state is 1-A.
 Alpha  occ. eigenvalues --  -19.32455 -19.20784 -19.20296 -19.19897 -19.18231
 Alpha  occ. eigenvalues --  -10.39496 -10.31903 -10.31855 -10.30084 -10.29858
 Alpha  occ. eigenvalues --  -10.27907 -10.25938 -10.25843 -10.25599 -10.24607
 Alpha  occ. eigenvalues --   -1.21313  -1.09658  -1.08590  -1.07691  -1.06652
 Alpha  occ. eigenvalues --   -0.87113  -0.85347  -0.78309  -0.74717  -0.73895
 Alpha  occ. eigenvalues --   -0.71304  -0.69979  -0.68001  -0.66495  -0.61929
 Alpha  occ. eigenvalues --   -0.58971  -0.58820  -0.56755  -0.54510  -0.53931
 Alpha  occ. eigenvalues --   -0.52948  -0.51488  -0.50979  -0.50321  -0.49417
 Alpha  occ. eigenvalues --   -0.48334  -0.47767  -0.47176  -0.46181  -0.45712
 Alpha  occ. eigenvalues --   -0.45343  -0.43056  -0.42072  -0.41248  -0.40967
 Alpha  occ. eigenvalues --   -0.39898  -0.37074  -0.36526  -0.36232  -0.35067
 Alpha  occ. eigenvalues --   -0.33182  -0.30805  -0.29445  -0.28724
 Alpha virt. eigenvalues --   -0.14848   0.01103   0.03423   0.04441   0.05976
 Alpha virt. eigenvalues --    0.06745   0.08038   0.08352   0.09878   0.10579
 Alpha virt. eigenvalues --    0.10767   0.11606   0.12344   0.12492   0.13115

 Mulliken charges:
               1
     1  C    0.130014
     2  C    0.030212
     3  C    0.274484
     4  C    0.047214
     5  C    0.054430
     6  H    0.277221
     7  H    0.264413
     8  H    0.198677
     9  H    0.236276
    10  H    0.204785
    11  O   -0.298795
    12  O   -0.470117
    13  O   -0.491784
    14  O   -0.489014
    15  C   -0.019831
    16  H    0.171126
    17  H    0.179415
    18  O   -0.479151
    19  C   -0.240589
    20  H    0.179396
    21  H    0.165191
    22  H    0.196170
    23  C   -0.228822
    24  H    0.189650
    25  H    0.170513
    26  H    0.166075
    27  C   -0.226175
    28  H    0.172591
    29  H    0.167756
    30  H    0.191696
    31  C   -0.212113
    32  H    0.153674
    33  H    0.156326
    34  H    0.179086
 Sum of Mulliken charges =   1.00000

 Dipole moment (field-independent basis, Debye):
    X=             -1.0448    Y=             -0.6079    Z=              0.3080  Tot=              1.2474
 Quadrupole moment (field-independent basis, Debye-Ang):
   XX=            -68.8324   YY=            -71.4624   ZZ=            -74.9075
   XY=              5.2058   XZ=             -2.3229   YZ=              1.2043

  Exact polarizability: 155.871  -0.264 140.757  -5.213  -1.257 132.235
 Approx polarizability: 168.965  -4.777 159.939  -6.485  -2.584 155.346

                      1                      2                      3
                      A                      A                      A
 Frequencies --     31.3795                49.6689                65.4352
 Red. masses --      3.4731                 3.2960                 3.1635
 Frc consts  --      0.0020                 0.0048                 0.0080
 IR Inten    --      0.3913                 1.3275                 0.4484

                      4                      5                      6
                      A                      A                      A
 Frequencies --     85.9489                98.7461               107.9598
 Red. masses --      2.9917                 2.1055                 2.7470
 Frc consts  --      0.0130                 0.0121                 0.0189
 IR Inten    --      3.5333                 5.9427                 9.7465

                      7                      8                      9
                      A                      A                      A
 Frequencies --    110.3988               136.7967               148.3662
 Red. masses --      2.5015                 1.9885                 1.8936
 Frc consts  --      0.0180                 0.0219                 0.0246
 IR Inten    --      3.5084                 0.4476                 3.9372

                     10                     11                     12
                      A                      A                      A
 Frequencies --    154.3359               185.3141               195.2128
 Red. masses --      1.6992                 1.3583                 2.0031
 Frc consts  --      0.0238                 0.0275                 0.0450
 IR Inten    --      2.6955                 2.0670                 4.2209

                     13                     14                     15
                      A                      A                      A
 Frequencies --    209.2483               217.9048               271.6919
 Red. masses --      1.5143                 1.3740                 3.7769
 Frc consts  --      0.0391                 0.0384                 0.1643
 IR Inten    --      3.9457                 5.8819                 4.0043

                     16                     17                     18
                      A                      A                      A
 Frequencies --    280.8106               317.1869               329.8055
 Red. masses --      4.0139                 3.4827                 4.8972
 Frc consts  --      0.1865                 0.2064                 0.3138
 IR Inten    --      3.0593                 4.0822                16.2976

                     19                     20                     21
                      A                      A                      A
 Frequencies --    355.8933               380.9137               386.2400
 Red. masses --      4.0256                 4.6728                 3.9740
 Frc consts  --      0.3004                 0.3995                 0.3493
 IR Inten    --      2.0368                14.3776                 7.4837

                     22                     23                     24
                      A                      A                      A
 Frequencies --    422.2535               475.2764               526.5993
 Red. masses --      4.4797                 4.3857                 3.8458
 Frc consts  --      0.4706                 0.5837                 0.6283
 IR Inten    --     21.2590                 2.3086                10.8454

                     25                     26                     27
                      A                      A                      A
 Frequencies --    589.7361               604.4774               619.0639
 Red. masses --      3.4827                 5.1588                 3.8392
 Frc consts  --      0.7136                 1.1106                 0.8669
 IR Inten    --     10.5746                 1.2381                22.5907

                     28                     29                     30
                      A                      A                      A
 Frequencies --    683.1057               778.2826               892.4650
 Red. masses --      4.2424                 2.8107                 2.8320
 Frc consts  --      1.1664                 1.0031                 1.3290
 IR Inten    --     71.9421                12.6474                 9.7540

                     31                     32                     33
                      A                      A                      A
 Frequencies --    918.0638               945.5862               954.1946
 Red. masses --      3.1157                 4.1346                 3.7029
 Frc consts  --      1.5472                 2.1781                 1.9864
 IR Inten    --     18.7001                68.9622                46.6812

                     34                     35                     36
                      A                      A                      A
 Frequencies --    980.3132              1009.7316              1021.4621
 Red. masses --      2.9179                 2.4908                 2.4100
 Frc consts  --      1.6522                 1.4962                 1.4816
 IR Inten    --     19.4144                13.1119                26.6798

                     37                     38                     39
                      A                      A                      A
 Frequencies --   1049.7456              1071.1576              1108.5656
 Red. masses --      3.2569                 2.6500                 3.4624
 Frc consts  --      2.1146                 1.7915                 2.5070
 IR Inten    --      7.7509                56.0788                83.0891

                     40                     41                     42
                      A                      A                      A
 Frequencies --   1130.6365              1136.8526              1152.8253
 Red. masses --      2.7007                 2.1896                 3.5808
 Frc consts  --      2.0341                 1.6673                 2.8039
 IR Inten    --     45.4935               119.9416               365.0129

                     43                     44                     45
                      A                      A                      A
 Frequencies --   1159.6650              1169.8652              1188.0954
 Red. masses --      4.1147                 4.0067                 1.2742
 Frc consts  --      3.2603                 3.2308                 1.0597
 IR Inten    --    158.5243               115.1676                 3.4052

                     46                     47                     48
                      A                      A                      A
 Frequencies --   1189.0007              1190.8648              1194.4389
 Red. masses --      1.2920                 1.3325                 1.2732
 Frc consts  --      1.0762                 1.1134                 1.0702
 IR Inten    --      8.6925                 1.0642                 9.2783

                     49                     50                     51
                      A                      A                      A
 Frequencies --   1216.3304              1222.7099              1229.2995
 Red. masses --      1.4565                 1.5259                 1.6626
 Frc consts  --      1.2696                 1.3440                 1.4803
 IR Inten    --     22.5292                26.5499                65.1180

                     52                     53                     54
                      A                      A                      A
 Frequencies --   1234.6152              1252.4386              1265.4716
 Red. masses --      1.7256                 1.6725                 1.1852
 Frc consts  --      1.5497                 1.5457                 1.1183
 IR Inten    --     41.7068                36.6700                11.3635

                     55                     56                     57
                      A                      A                      A
 Frequencies --   1296.0040              1317.4657              1335.0515
 Red. masses --      1.5229                 1.2151                 1.3057
 Frc consts  --      1.5071                 1.2427                 1.3712
 IR Inten    --     39.5486                 2.9899                 8.2279

                     58                     59                     60
                      A                      A                      A
 Frequencies --   1342.1685              1364.5124              1371.7934
 Red. masses --      1.2845                 1.2954                 1.3358
 Frc consts  --      1.3634                 1.4210                 1.4810
 IR Inten    --      6.3691                24.0282                31.8714

                     61                     62                     63
                      A                      A                      A
 Frequencies --   1411.8646              1413.3755              1442.3384
 Red. masses --      1.4037                 1.4372                 1.4383
 Frc consts  --      1.6485                 1.6916                 1.7629
 IR Inten    --     22.2965                21.5573                46.3808

                     64                     65                     66
                      A                      A                      A
 Frequencies --   1497.0173              1498.3220              1499.1509
 Red. masses --      1.1498                 1.1199                 1.1138
 Frc consts  --      1.5182                 1.4813                 1.4749
 IR Inten    --      1.6364                 1.2116                 5.2503

                     67                     68                     69
                      A                      A                      A
 Frequencies --   1504.0481              1507.9773              1513.7350
 Red. masses --      1.0895                 1.0473                 1.0574
 Frc consts  --      1.4521                 1.4032                 1.4275
 IR Inten    --      5.3796                 9.8765                 6.8325

                     70                     71                     72
                      A                      A                      A
 Frequencies --   1516.4531              1518.2611              1521.9349
 Red. masses --      1.0712                 1.0482                 1.0716
 Frc consts  --      1.4514                 1.4236                 1.4624
 IR Inten    --      9.2154                 8.7582                15.4436

                     73                     74                     75
                      A                      A                      A
 Frequencies --   1527.1600              1528.3046              1529.8738
 Red. masses --      1.0589                 1.0646                 1.0869
 Frc consts  --      1.4550                 1.4650                 1.4988
 IR Inten    --     28.3093                 1.9244                20.9930

                     76                     77                     78
                      A                      A                      A
 Frequencies --   1535.3489              1645.2050              2973.2407
 Red. masses --      1.0886                 6.0541                 1.0783
 Frc consts  --      1.5120                 9.6546                 5.6165
 IR Inten    --      6.6012               183.5666                25.8048

                     79                     80                     81
                      A                      A                      A
 Frequencies --   3007.5176              3018.2758              3032.4898
 Red. masses --      1.0591                 1.0413                 1.0350
 Frc consts  --      5.6442                 5.5890                 5.6076
 IR Inten    --     37.0874                55.9183                50.0580

                     82                     83                     84
                      A                      A                      A
 Frequencies --   3045.0358              3046.1060              3065.6962
 Red. masses --      1.0336                 1.0387                 1.0957
 Frc consts  --      5.6464                 5.6786                 6.0672
 IR Inten    --     60.4166                19.5956                57.2847

                     85                     86                     87
                      A                      A                      A
 Frequencies --   3068.2390              3071.8480              3075.8454
 Red. masses --      1.0874                 1.1054                 1.0855
 Frc consts  --      6.0313                 6.1455                 6.0510
 IR Inten    --     35.1064                20.9037                16.8837

                     88                     89                     90
                      A                      A                      A
 Frequencies --   3094.0042              3109.3864              3123.2794
 Red. masses --      1.1066                 1.1071                 1.0990
 Frc consts  --      6.2413                 6.3066                 6.3166
 IR Inten    --     49.8178                45.8967                35.9583

                     91                     92                     93
                      A                      A                      A
 Frequencies --   3158.7251              3166.6270              3172.7371
 Red. masses --      1.0993                 1.0868                 1.1020
 Frc consts  --      6.4624                 6.4207                 6.5356
 IR Inten    --     28.7990                 1.6538                20.9343

                     94                     95                     96
                      A                      A                      A
 Frequencies --   3172.9018              3182.8230              3190.9834
 Red. masses --      1.1009                 1.1035                 1.0938
 Frc consts  --      6.5302                 6.5865                 6.5619
 IR Inten    --     18.0878                18.7254                 1.0483

 - Thermochemistry -
 -------------------
 Temperature   298.150 Kelvin.  Pressure   1.00000 Atm.
 Atom     1 has atomic number  6 and mass  12.00000

 Molecular mass:   219.12325 amu.
 Principal axes and moments of inertia in atomic units:
                           1         2         3
     Eigenvalues --  2461.610044155.068844815.08556
           X            0.99975   0.02232   0.00027
           Y           -0.02232   0.99966   0.01319
           Z            0.00002  -0.01319   0.99991
 This molecule is an asymmetric top.
 Rotational symmetry number  1.
 Warning -- assumption of classical behavior for rotation
           may cause significant error
 Rotational temperatures (Kelvin)      0.03519     0.02085     0.01799
 Rotational constants (GHZ):           0.73315     0.43435     0.37481
 Zero-point vibrational energy     772282.6 (Joules/Mol)
                                  184.57998 (Kcal/Mol)
 Warning -- explicit consideration of  27 degrees of freedom as
           vibrations may cause significant error
 Vibrational temperatures:     45.15    71.46    94.15   123.66   142.07
          (Kelvin)            155.33   158.84   196.82   213.47   222.05
                              266.63   280.87   301.06   313.52   390.90
                              404.02   456.36   474.52   512.05   548.05
                              555.71   607.53   683.82   757.66   848.50
                              869.71   890.69   982.84  1119.78  1284.06
                             1320.89  1360.49  1372.87  1410.45  1452.78
                             1469.66  1510.35  1541.16  1594.98  1626.73
                             1635.68  1658.66  1668.50  1683.18  1709.40
                             1710.71  1713.39  1718.53  1750.03  1759.21
                             1768.69  1776.34  1801.98  1820.73  1864.66
                             1895.54  1920.84  1931.08  1963.23  1973.70
                             2031.36  2033.53  2075.20  2153.87  2155.75
                             2156.94  2163.99  2169.64  2177.93  2181.84
                             2184.44  2189.72  2197.24  2198.89  2201.15
                             2209.02  2367.08  4277.83  4327.15  4342.63
                             4363.08  4381.13  4382.67  4410.85  4414.51
                             4419.70  4425.46  4451.58  4473.71  4493.70
                             4544.70  4556.07  4564.86  4565.10  4579.37
                             4591.11

 Zero-point correction=                           0.294147 (Hartree/Particle)
 Thermal correction to Energy=                    0.311498
 Thermal correction to Enthalpy=                  0.312442
 Thermal correction to Gibbs Free Energy=         0.248513
 Sum of electronic and zero-point Energies=           -768.036130
 Sum of electronic and thermal Energies=              -768.018779
 Sum of electronic and thermal Enthalpies=            -768.017835
 Sum of electronic and thermal Free Energies=         -768.081764

                     E (Thermal)             CV                S
                      KCal/Mol        Cal/Mol-Kelvin    Cal/Mol-Kelvin
 Total                  195.468             61.623            134.552
 Electronic               0.000              0.000              0.000
 Translational            0.889              2.981             42.056
 Rotational               0.889              2.981             32.266
 Vibrational            193.691             55.662             60.230
 Vibration     1          0.594              1.983              5.740
 Vibration     2          0.595              1.978              4.831
 Vibration     3          0.597              1.971              4.286
 Vibration     4          0.601              1.959              3.750
 Vibration     5          0.604              1.950              3.479
 Vibration     6          0.606              1.943              3.305
 Vibration     7          0.606              1.941              3.262
 Vibration     8          0.614              1.917              2.848
 Vibration     9          0.618              1.904              2.693
 Vibration    10          0.620              1.898              2.618
 Vibration    11          0.631              1.860              2.274
 Vibration    12          0.636              1.847              2.178
 Vibration    13          0.642              1.827              2.050
 Vibration    14          0.646              1.814              1.976
 Vibration    15          0.675              1.725              1.585
 Vibration    16          0.680              1.709              1.529
 Vibration    17          0.704              1.641              1.325
 Vibration    18          0.713              1.616              1.261
 Vibration    19          0.731              1.563              1.140
 Vibration    20          0.751              1.511              1.036
 Vibration    21          0.755              1.500              1.015
 Vibration    22          0.785              1.422              0.884
 Vibration    23          0.832              1.305              0.723
 Vibration    24          0.882              1.191              0.595
 Vibration    25          0.947              1.054              0.468
 Vibration    26          0.963              1.022              0.442
 Vibration    27          0.979              0.992              0.418

                           ! Non-Optimized Parameters !
 Normal termination of Gaussian 16 at Fri May 24 08:54:44 2019.
