 Gaussian 16, Revision A.03,
 Gaussian 16:  ES64L-G16RevA.03 25-Dec-2016

 -------------------------------------------------------------------
 #p b3lyp 6-31g* opt freq=noraman scrf=(pcm,solvent=tetrahydrofuran)
 -------------------------------------------------------------------

 -----
 title
 -----
 Symbolic Z-matrix:
 Charge =  1 Multiplicity = 1

 SCF Done:  E(RB3LYP) =  -768.330194343     A.U. after   13 cycles
 Optimization completed.
    -- Stationary point found.
 Normal termination of Gaussian 16 at Fri May 24 08:35:16 2019.

 --------------------------------------------------------------------
 #P Geom=AllCheck Guess=TCheck SCRF=Check GenChk RB3LYP/6-31G(d) Freq
 --------------------------------------------------------------------

 Structure from the checkpoint file:  "/scratch/Gau-183495.chk"
 -----
 title
 -----
 Charge =  1 Multiplicity = 1

                         Standard orientation:
 ---------------------------------------------------------------------
 Center     Atomic      Atomic             Coordinates (Angstroms)
 Number     Number       Type             X           Y           Z
 ---------------------------------------------------------------------
      1          6           0        0.670722   -0.525901   -0.762846
      2          6           0        1.667503   -0.521043    0.419878
      3          6           0        1.112905    0.082271    1.672889
      4          6           0       -0.992116    0.779164    0.674522
      5          6           0       -0.291999    0.671778   -0.682015
      6          1           0        1.735478    0.127940    2.566474
      7          1           0        1.962720   -1.555406    0.639099
      8          1           0        1.248054   -0.437762   -1.690524
      9          1           0       -1.364770    1.792671    0.824271
     10          1           0       -1.074991    0.540956   -1.438617
     11          8           0        0.006831    0.668302    1.794319
     12          8           0        2.788415    0.319824    0.210014
     13          8           0       -0.103381   -1.705622   -0.725515
     14          8           0        0.490908    1.826227   -0.911760
     15          6           0       -2.109249   -0.218473    0.991952
     16          1           0       -1.746135   -1.247994    0.889415
     17          1           0       -2.447406   -0.061817    2.027716
     18          8           0       -3.128155    0.072057    0.063044
     19          6           0        4.067691   -0.303057    0.418777
     20          1           0        4.810490    0.461175    0.188995
     21          1           0        4.191658   -0.633303    1.456254
     22          1           0        4.186775   -1.158057   -0.256920
     23          6           0        0.495246   -2.829620   -1.372953
     24          1           0        0.677741   -2.615024   -2.433093
     25          1           0       -0.215542   -3.652039   -1.281066
     26          1           0        1.441602   -3.120581   -0.897467
     27          6           0       -0.216423    2.918211   -1.499702
     28          1           0        0.513956    3.716917   -1.638759
     29          1           0       -0.638207    2.632723   -2.471984
     30          1           0       -1.024995    3.284070   -0.853151
     31          6           0       -4.247373   -0.798454    0.189088
     32          1           0       -4.971007   -0.489944   -0.567712
     33          1           0       -3.959361   -1.844270    0.013679
     34          1           0       -4.704430   -0.715814    1.185043
 ---------------------------------------------------------------------

 SCF Done:  E(RB3LYP) =  -768.330194343     A.U. after    1 cycles

 The electronic state is 1-A.
 Alpha  occ. eigenvalues --  -19.32525 -19.22075 -19.19703 -19.18881 -19.18326
 Alpha  occ. eigenvalues --  -10.39266 -10.31490 -10.31373 -10.29259 -10.28941
 Alpha  occ. eigenvalues --  -10.27327 -10.26437 -10.25592 -10.25085 -10.24578
 Alpha  occ. eigenvalues --   -1.21171  -1.09937  -1.08126  -1.06977  -1.06553
 Alpha  occ. eigenvalues --   -0.86760  -0.85222  -0.77493  -0.74527  -0.73510
 Alpha  occ. eigenvalues --   -0.70944  -0.69168  -0.68010  -0.66372  -0.61562
 Alpha  occ. eigenvalues --   -0.58994  -0.58389  -0.56655  -0.54027  -0.53497
 Alpha  occ. eigenvalues --   -0.52749  -0.51001  -0.50678  -0.49820  -0.49408
 Alpha  occ. eigenvalues --   -0.48310  -0.47637  -0.47329  -0.46051  -0.45438
 Alpha  occ. eigenvalues --   -0.45018  -0.43259  -0.42027  -0.40746  -0.39996
 Alpha  occ. eigenvalues --   -0.39271  -0.37834  -0.36048  -0.35398  -0.34940
 Alpha  occ. eigenvalues --   -0.32784  -0.30537  -0.29089  -0.28573
 Alpha virt. eigenvalues --   -0.14554   0.00867   0.03597   0.04642   0.06751
 Alpha virt. eigenvalues --    0.07350   0.08060   0.09228   0.09948   0.10983
 Alpha virt. eigenvalues --    0.11622   0.11848   0.12651   0.13171   0.13272

 Mulliken charges:
               1
     1  C    0.110585
     2  C    0.039948
     3  C    0.301419
     4  C    0.054531
     5  C    0.072843
     6  H    0.271749
     7  H    0.226501
     8  H    0.193874
     9  H    0.231999
    10  H    0.199897
    11  O   -0.313386
    12  O   -0.452365
    13  O   -0.484333
    14  O   -0.485874
    15  C   -0.018465
    16  H    0.177389
    17  H    0.166956
    18  O   -0.481803
    19  C   -0.234521
    20  H    0.201081
    21  H    0.178260
    22  H    0.181866
    23  C   -0.225887
    24  H    0.171494
    25  H    0.188886
    26  H    0.158747
    27  C   -0.223311
    28  H    0.185185
    29  H    0.166222
    30  H    0.159495
    31  C   -0.209643
    32  H    0.178652
    33  H    0.156188
    34  H    0.155821
 Sum of Mulliken charges =   1.00000

 Dipole moment (field-independent basis, Debye):
    X=              3.1561    Y=             -2.5111    Z=              3.1906  Tot=              5.1426
 Quadrupole moment (field-independent basis, Debye-Ang):
   XX=            -57.2208   YY=            -73.0041   ZZ=            -73.1070
   XY=             -5.9860   XZ=              4.1139   YZ=             -0.3813

  Exact polarizability: 172.453  -3.122 137.229  -0.800   1.830 130.749
 Approx polarizability: 185.150  -2.590 154.260  -5.542   0.510 154.192

                      1                      2                      3
                      A                      A                      A
 Frequencies --     32.0584                54.1380                63.1986
 Red. masses --      3.9754                 3.2333                 3.2498
 Frc consts  --      0.0024                 0.0056                 0.0076
 IR Inten    --      1.5189                 2.3587                 2.6716

                      4                      5                      6
                      A                      A                      A
 Frequencies --     75.0590                87.9153                95.8941
 Red. masses --      2.9403                 2.8186                 2.8649
 Frc consts  --      0.0098                 0.0128                 0.0155
 IR Inten    --      2.7314                 1.5390                 8.8237

                      7                      8                      9
                      A                      A                      A
 Frequencies --    108.6664               116.6435               142.6815
 Red. masses --      2.4890                 2.3814                 2.8573
 Frc consts  --      0.0173                 0.0191                 0.0343
 IR Inten    --      3.3222                 4.1390                 7.0685

                     10                     11                     12
                      A                      A                      A
 Frequencies --    169.9343               178.7457               187.2220
 Red. masses --      1.3130                 1.3522                 1.6954
 Frc consts  --      0.0223                 0.0255                 0.0350
 IR Inten    --      0.1437                 1.7196                 0.0819

                     13                     14                     15
                      A                      A                      A
 Frequencies --    205.7243               233.3136               260.5808
 Red. masses --      1.4390                 1.5612                 2.7153
 Frc consts  --      0.0359                 0.0501                 0.1086
 IR Inten    --      0.2155                12.4573                 3.8197

                     16                     17                     18
                      A                      A                      A
 Frequencies --    282.7278               301.2975               314.9385
 Red. masses --      3.3846                 3.6122                 4.7514
 Frc consts  --      0.1594                 0.1932                 0.2777
 IR Inten    --     13.8653                13.7699                10.5682

                     19                     20                     21
                      A                      A                      A
 Frequencies --    351.1058               370.3943               384.5154
 Red. masses --      3.7405                 4.3624                 5.3171
 Frc consts  --      0.2717                 0.3526                 0.4632
 IR Inten    --      0.7836                 7.7547                 6.5308

                     22                     23                     24
                      A                      A                      A
 Frequencies --    421.3350               470.4875               501.6882
 Red. masses --      3.4938                 4.3281                 4.1066
 Frc consts  --      0.3654                 0.5645                 0.6090
 IR Inten    --     11.4320                23.3716                10.6342

                     25                     26                     27
                      A                      A                      A
 Frequencies --    565.2561               598.1205               642.4346
 Red. masses --      4.2021                 4.3470                 4.5334
 Frc consts  --      0.7911                 0.9163                 1.1024
 IR Inten    --      8.3709                32.5515                18.6742

                     28                     29                     30
                      A                      A                      A
 Frequencies --    760.3006               847.7704               857.8968
 Red. masses --      4.8099                 2.0468                 2.9876
 Frc consts  --      1.6382                 0.8667                 1.2955
 IR Inten    --     52.7886                 5.7088                10.9508

                     31                     32                     33
                      A                      A                      A
 Frequencies --    926.8021               954.6811               960.8939
 Red. masses --      4.4287                 4.6801                 1.8832
 Frc consts  --      2.2413                 2.5132                 1.0244
 IR Inten    --     46.0146                80.0471                22.8381

                     34                     35                     36
                      A                      A                      A
 Frequencies --    981.3611              1008.4387              1035.4485
 Red. masses --      4.7733                 4.7461                 2.5895
 Frc consts  --      2.7085                 2.8437                 1.6357
 IR Inten    --     11.6156                23.7618                18.4830

                     37                     38                     39
                      A                      A                      A
 Frequencies --   1059.0157              1095.0269              1114.8361
 Red. masses --      2.9483                 2.3237                 3.2936
 Frc consts  --      1.9482                 1.6416                 2.4118
 IR Inten    --      4.0153               122.0623                92.3004

                     40                     41                     42
                      A                      A                      A
 Frequencies --   1124.9674              1135.2837              1146.6316
 Red. masses --      4.2345                 2.5484                 2.2477
 Frc consts  --      3.1574                 1.9352                 1.7411
 IR Inten    --    134.9391                30.7432               183.3959

                     43                     44                     45
                      A                      A                      A
 Frequencies --   1153.6367              1160.7737              1177.6068
 Red. masses --      2.0420                 4.5742                 1.2788
 Frc consts  --      1.6012                 3.6313                 1.0449
 IR Inten    --    128.5952               206.2438                 0.9213

                     46                     47                     48
                      A                      A                      A
 Frequencies --   1188.3362              1190.0770              1191.3664
 Red. masses --      1.2835                 1.2741                 1.2927
 Frc consts  --      1.0679                 1.0632                 1.0811
 IR Inten    --      5.1108                 8.2962                 5.6158

                     49                     50                     51
                      A                      A                      A
 Frequencies --   1210.9499              1222.1809              1230.3540
 Red. masses --      1.4064                 1.5631                 1.6902
 Frc consts  --      1.2151                 1.3757                 1.5075
 IR Inten    --     14.8731                62.6287                28.1760

                     52                     53                     54
                      A                      A                      A
 Frequencies --   1236.5630              1255.9879              1270.9427
 Red. masses --      1.6727                 1.3808                 1.7116
 Frc consts  --      1.5070                 1.2834                 1.6289
 IR Inten    --     29.6034                18.8774                12.0849

                     55                     56                     57
                      A                      A                      A
 Frequencies --   1320.0113              1331.7486              1341.6444
 Red. masses --      1.2271                 1.3240                 1.2342
 Frc consts  --      1.2598                 1.3835                 1.3089
 IR Inten    --      7.2690                13.8964                16.0333

                     58                     59                     60
                      A                      A                      A
 Frequencies --   1361.6285              1369.7712              1385.9220
 Red. masses --      1.2531                 1.3127                 1.7436
 Frc consts  --      1.3689                 1.4512                 1.9732
 IR Inten    --     49.1152                 7.8494                42.6314

                     61                     62                     63
                      A                      A                      A
 Frequencies --   1431.1927              1434.7763              1446.2669
 Red. masses --      1.4535                 1.4408                 1.3243
 Frc consts  --      1.7541                 1.7475                 1.6321
 IR Inten    --     16.0317                17.6299                47.9203

                     64                     65                     66
                      A                      A                      A
 Frequencies --   1490.7001              1498.6692              1499.8126
 Red. masses --      1.1286                 1.1216                 1.1259
 Frc consts  --      1.4777                 1.4842                 1.4922
 IR Inten    --     15.1678                 2.4316                 2.6076

                     67                     68                     69
                      A                      A                      A
 Frequencies --   1501.9579              1509.6053              1510.3207
 Red. masses --      1.1409                 1.0492                 1.0576
 Frc consts  --      1.5163                 1.4088                 1.4214
 IR Inten    --      3.9308                 6.8367                10.2094

                     70                     71                     72
                      A                      A                      A
 Frequencies --   1515.7484              1518.6005              1518.9164
 Red. masses --      1.0578                 1.0553                 1.0524
 Frc consts  --      1.4319                 1.4339                 1.4305
 IR Inten    --      8.4156                13.4286                12.9388

                     73                     74                     75
                      A                      A                      A
 Frequencies --   1525.7660              1528.0756              1529.1980
 Red. masses --      1.0595                 1.0648                 1.0700
 Frc consts  --      1.4532                 1.4648                 1.4742
 IR Inten    --      8.2708                32.4646                 6.1205

                     76                     77                     78
                      A                      A                      A
 Frequencies --   1552.5192              1640.1663              3017.4577
 Red. masses --      1.0863                 5.5312                 1.0493
 Frc consts  --      1.5427                 8.7669                 5.6290
 IR Inten    --      4.2001               358.4510                41.5531

                     79                     80                     81
                      A                      A                      A
 Frequencies --   3023.9815              3029.7365              3030.8928
 Red. masses --      1.0488                 1.0350                 1.0359
 Frc consts  --      5.6506                 5.5975                 5.6066
 IR Inten    --     80.4283                93.2364                15.0930

                     82                     83                     84
                      A                      A                      A
 Frequencies --   3047.4003              3064.8613              3075.0597
 Red. masses --      1.0328                 1.0824                 1.0861
 Frc consts  --      5.6508                 5.9905                 6.0510
 IR Inten    --     43.6179                 2.1384                13.3218

                     85                     86                     87
                      A                      A                      A
 Frequencies --   3075.8841              3079.1334              3089.9554
 Red. masses --      1.1046                 1.0869                 1.1053
 Frc consts  --      6.1572                 6.0714                 6.2176
 IR Inten    --     72.3793                26.5335                46.4811

                     88                     89                     90
                      A                      A                      A
 Frequencies --   3091.2516              3093.1589              3116.7913
 Red. masses --      1.0993                 1.1050                 1.1081
 Frc consts  --      6.1892                 6.2290                 6.3423
 IR Inten    --      8.7769                53.5747                31.6476

                     91                     92                     93
                      A                      A                      A
 Frequencies --   3157.3815              3159.2312              3165.3163
 Red. masses --      1.0874                 1.0999                 1.1005
 Frc consts  --      6.3868                 6.4681                 6.4966
 IR Inten    --      3.8658                26.8403                23.6018

                     94                     95                     96
                      A                      A                      A
 Frequencies --   3169.7400              3183.3154              3208.9041
 Red. masses --      1.1009                 1.1027                 1.0935
 Frc consts  --      6.5169                 6.5839                 6.6339
 IR Inten    --     20.4268                13.7883                 0.7724

 - Thermochemistry -
 -------------------
 Temperature   298.150 Kelvin.  Pressure   1.00000 Atm.
 Atom     1 has atomic number  6 and mass  12.00000

 Molecular mass:   219.12325 amu.
 Principal axes and moments of inertia in atomic units:
                           1         2         3
     Eigenvalues --  2294.859354289.586834933.23086
           X            0.99996  -0.00860  -0.00043
           Y            0.00859   0.99982  -0.01686
           Z            0.00057   0.01686   0.99986
 This molecule is an asymmetric top.
 Rotational symmetry number  1.
 Warning -- assumption of classical behavior for rotation
           may cause significant error
 Rotational temperatures (Kelvin)      0.03774     0.02019     0.01756
 Rotational constants (GHZ):           0.78643     0.42073     0.36583
 Zero-point vibrational energy     773724.8 (Joules/Mol)
                                  184.92465 (Kcal/Mol)
 Warning -- explicit consideration of  26 degrees of freedom as
           vibrations may cause significant error
 Vibrational temperatures:     46.12    77.89    90.93   107.99   126.49
          (Kelvin)            137.97   156.35   167.82   205.29   244.50
                              257.18   269.37   295.99   335.69   374.92
                              406.78   433.50   453.13   505.16   532.91
                              553.23   606.21   676.93   721.82   813.28
                              860.56   924.32  1093.90  1219.75  1234.32
                             1333.46  1373.57  1382.51  1411.96  1450.92
                             1489.78  1523.69  1575.50  1604.00  1618.58
                             1633.42  1649.75  1659.83  1670.09  1694.31
                             1709.75  1712.26  1714.11  1742.29  1758.45
                             1770.21  1779.14  1807.09  1828.60  1899.20
                             1916.09  1930.33  1959.08  1970.80  1994.03
                             2059.17  2064.32  2080.86  2144.78  2156.25
                             2157.90  2160.98  2171.99  2173.01  2180.82
                             2184.93  2185.38  2195.24  2198.56  2200.17
                             2233.73  2359.83  4341.45  4350.83  4359.11
                             4360.78  4384.53  4409.65  4424.33  4425.51
                             4430.19  4445.76  4447.62  4450.37  4484.37
                             4542.77  4545.43  4554.18  4560.55  4580.08
                             4616.90

 Zero-point correction=                           0.294696 (Hartree/Particle)
 Thermal correction to Energy=                    0.312180
 Thermal correction to Enthalpy=                  0.313124
 Thermal correction to Gibbs Free Energy=         0.248677
 Sum of electronic and zero-point Energies=           -768.035498
 Sum of electronic and thermal Energies=              -768.018014
 Sum of electronic and thermal Enthalpies=            -768.017070
 Sum of electronic and thermal Free Energies=         -768.081517

                     E (Thermal)             CV                S
                      KCal/Mol        Cal/Mol-Kelvin    Cal/Mol-Kelvin
 Total                  195.896             61.543            135.641
 Electronic               0.000              0.000              0.000
 Translational            0.889              2.981             42.056
 Rotational               0.889              2.981             32.252
 Vibrational            194.119             55.582             61.333
 Vibration     1          0.594              1.983              5.698
 Vibration     2          0.596              1.976              4.660
 Vibration     3          0.597              1.972              4.355
 Vibration     4          0.599              1.966              4.016
 Vibration     5          0.601              1.958              3.706
 Vibration     6          0.603              1.952              3.536
 Vibration     7          0.606              1.942              3.293
 Vibration     8          0.608              1.936              3.155
 Vibration     9          0.616              1.911              2.768
 Vibration    10          0.625              1.879              2.436
 Vibration    11          0.629              1.868              2.341
 Vibration    12          0.632              1.857              2.255
 Vibration    13          0.640              1.832              2.081
 Vibration    14          0.654              1.790              1.853
 Vibration    15          0.669              1.745              1.658
 Vibration    16          0.682              1.706              1.517
 Vibration    17          0.693              1.671              1.410
 Vibration    18          0.702              1.645              1.336
 Vibration    19          0.728              1.573              1.161
 Vibration    20          0.742              1.533              1.078
 Vibration    21          0.753              1.503              1.021
 Vibration    22          0.784              1.424              0.887
 Vibration    23          0.828              1.316              0.736
 Vibration    24          0.857              1.246              0.654
 Vibration    25          0.921              1.106              0.513
 Vibration    26          0.956              1.036              0.453

 Optimization completed.
    -- Stationary point found.
 Normal termination of Gaussian 16 at Fri May 24 08:54:48 2019.
