 Gaussian 16, Revision A.03,
 Gaussian 16:  ES64L-G16RevA.03 25-Dec-2016

 -------------------------------------------------------------------
 #p b3lyp 6-31g* opt freq=noraman scrf=(pcm,solvent=tetrahydrofuran)
 -------------------------------------------------------------------

 -----
 title
 -----
 Symbolic Z-matrix:
 Charge =  1 Multiplicity = 1

 SCF Done:  E(RB3LYP) =  -768.320611504     A.U. after   14 cycles
 Optimization completed.
    -- Stationary point found.
 Normal termination of Gaussian 16 at Fri May 24 08:38:48 2019.

 --------------------------------------------------------------------
 #P Geom=AllCheck Guess=TCheck SCRF=Check GenChk RB3LYP/6-31G(d) Freq
 --------------------------------------------------------------------

 Structure from the checkpoint file:  "/scratch/Gau-60957.chk"
 -----
 title
 -----
 Charge =  1 Multiplicity = 1

                         Standard orientation:
 ---------------------------------------------------------------------
 Center     Atomic      Atomic             Coordinates (Angstroms)
 Number     Number       Type             X           Y           Z
 ---------------------------------------------------------------------
      1          6           0       -1.070403    0.578837   -0.338845
      2          6           0       -1.883326   -0.648454    0.142973
      3          6           0       -1.054073   -1.893821    0.213799
      4          6           0        1.058534   -0.753730   -0.154224
      5          6           0        0.320254    0.508817    0.336368
      6          1           0       -1.544940   -2.861868    0.320173
      7          1           0       -2.260683   -0.461519    1.161544
      8          1           0       -0.961222    0.477156   -1.423383
      9          1           0        1.193694   -0.768865   -1.238005
     10          1           0        0.194080    0.408700    1.422315
     11          8           0        0.195155   -1.965028    0.081653
     12          8           0       -2.917564   -0.961244   -0.759469
     13          8           0       -1.765074    1.784102   -0.163832
     14          8           0        1.116459    1.652538    0.184639
     15          6           0        2.404748   -1.042519    0.507697
     16          1           0        2.538519   -2.131506    0.599509
     17          1           0        2.442088   -0.606796    1.517047
     18          8           0        3.376879   -0.472327   -0.338120
     19          6           0       -4.205700   -1.184478   -0.165446
     20          1           0       -4.892031   -1.354029   -0.995410
     21          1           0       -4.199696   -2.064226    0.488430
     22          1           0       -4.517797   -0.301815    0.404812
     23          6           0       -1.874849    2.303844    1.164422
     24          1           0       -2.380340    1.605477    1.844981
     25          1           0       -0.895291    2.573627    1.571393
     26          1           0       -2.488081    3.201883    1.075673
     27          6           0        1.343489    2.136628   -1.147205
     28          1           0        1.970588    3.021034   -1.026006
     29          1           0        1.881581    1.405244   -1.759485
     30          1           0        0.406198    2.426274   -1.632278
     31          6           0        4.688270   -0.541185    0.209402
     32          1           0        5.356438   -0.079345   -0.519768
     33          1           0        4.752726    0.006042    1.160217
     34          1           0        4.995674   -1.583433    0.375634
 ---------------------------------------------------------------------

 SCF Done:  E(RB3LYP) =  -768.320611504     A.U. after    1 cycles

 The electronic state is 1-A.
 Alpha  occ. eigenvalues --  -19.33420 -19.21755 -19.19595 -19.19294 -19.18322
 Alpha  occ. eigenvalues --  -10.39907 -10.32144 -10.32015 -10.29834 -10.29506
 Alpha  occ. eigenvalues --  -10.27696 -10.26346 -10.25183 -10.24889 -10.24543
 Alpha  occ. eigenvalues --   -1.21954  -1.10078  -1.08392  -1.06743  -1.06296
 Alpha  occ. eigenvalues --   -0.87345  -0.86011  -0.77324  -0.75641  -0.73920
 Alpha  occ. eigenvalues --   -0.71776  -0.68690  -0.67858  -0.65896  -0.62296
 Alpha  occ. eigenvalues --   -0.60620  -0.59076  -0.55860  -0.55310  -0.53363
 Alpha  occ. eigenvalues --   -0.52867  -0.51633  -0.51102  -0.50266  -0.49311
 Alpha  occ. eigenvalues --   -0.48449  -0.48026  -0.46170  -0.46038  -0.45302
 Alpha  occ. eigenvalues --   -0.43911  -0.43299  -0.42410  -0.41476  -0.41085
 Alpha  occ. eigenvalues --   -0.40217  -0.37830  -0.35817  -0.35460  -0.34406
 Alpha  occ. eigenvalues --   -0.32417  -0.30924  -0.29118  -0.28351
 Alpha virt. eigenvalues --   -0.15490  -0.00862   0.04402   0.05257   0.06170
 Alpha virt. eigenvalues --    0.06727   0.07977   0.08656   0.09321   0.10421
 Alpha virt. eigenvalues --    0.11183   0.11483   0.11814   0.12597   0.13496

 Mulliken charges:
               1
     1  C    0.119236
     2  C    0.028651
     3  C    0.301409
     4  C    0.070528
     5  C    0.073153
     6  H    0.278699
     7  H    0.229788
     8  H    0.194980
     9  H    0.241026
    10  H    0.187916
    11  O   -0.318859
    12  O   -0.462707
    13  O   -0.478194
    14  O   -0.473111
    15  C   -0.030464
    16  H    0.174480
    17  H    0.170492
    18  O   -0.477112
    19  C   -0.234837
    20  H    0.199952
    21  H    0.174625
    22  H    0.183308
    23  C   -0.241909
    24  H    0.155021
    25  H    0.176887
    26  H    0.189626
    27  C   -0.240956
    28  H    0.187249
    29  H    0.167791
    30  H    0.173626
    31  C   -0.211537
    32  H    0.179067
    33  H    0.157337
    34  H    0.154838
 Sum of Mulliken charges =   1.00000

 Dipole moment (field-independent basis, Debye):
    X=             -2.9172    Y=             -5.5198    Z=              2.9591  Tot=              6.9090
 Quadrupole moment (field-independent basis, Debye-Ang):
   XX=            -53.7670   YY=            -72.6113   ZZ=            -82.4839
   XY=              6.1995   XZ=             -5.4466   YZ=             -2.7499

  Exact polarizability: 181.108   4.570 146.381  -3.512  -2.257 115.529
 Approx polarizability: 186.680   1.227 166.437  -0.154  -3.578 147.130

                      1                      2                      3
                      A                      A                      A
 Frequencies --     40.3127                52.5297                64.8069
 Red. masses --      3.5703                 3.4067                 3.4709
 Frc consts  --      0.0034                 0.0055                 0.0086
 IR Inten    --      1.5868                 1.2780                 3.6428

                      4                      5                      6
                      A                      A                      A
 Frequencies --     72.4898                79.8844               115.9930
 Red. masses --      2.4901                 3.0585                 2.5099
 Frc consts  --      0.0077                 0.0115                 0.0199
 IR Inten    --      4.5562                 1.2059                11.7784

                      7                      8                      9
                      A                      A                      A
 Frequencies --    130.4783               134.1566               175.2722
 Red. masses --      2.2487                 2.4450                 1.9606
 Frc consts  --      0.0226                 0.0259                 0.0355
 IR Inten    --      6.6076                 4.8920                 0.5108

                     10                     11                     12
                      A                      A                      A
 Frequencies --    188.4274               195.5447               212.5014
 Red. masses --      1.5400                 1.9703                 1.3015
 Frc consts  --      0.0322                 0.0444                 0.0346
 IR Inten    --      0.1922                 1.8094                 1.7512

                     13                     14                     15
                      A                      A                      A
 Frequencies --    224.5137               245.0452               259.6292
 Red. masses --      1.2806                 2.9551                 2.9181
 Frc consts  --      0.0380                 0.1045                 0.1159
 IR Inten    --      3.5602                 8.6698                 5.4731

                     16                     17                     18
                      A                      A                      A
 Frequencies --    269.4100               278.5387               290.3984
 Red. masses --      2.7868                 3.4533                 4.0182
 Frc consts  --      0.1192                 0.1579                 0.1997
 IR Inten    --      8.4504                 0.6714                 6.6343

                     19                     20                     21
                      A                      A                      A
 Frequencies --    322.7479               343.1677               415.2077
 Red. masses --      3.7883                 4.2673                 4.4201
 Frc consts  --      0.2325                 0.2961                 0.4490
 IR Inten    --      4.6175                13.9173                 7.4644

                     22                     23                     24
                      A                      A                      A
 Frequencies --    449.0584               493.8385               504.6851
 Red. masses --      4.1047                 3.8040                 3.7210
 Frc consts  --      0.4877                 0.5466                 0.5584
 IR Inten    --      6.9427                 8.9289                13.3023

                     25                     26                     27
                      A                      A                      A
 Frequencies --    523.7334               585.3847               614.2464
 Red. masses --      4.2162                 3.2989                 3.4551
 Frc consts  --      0.6814                 0.6661                 0.7681
 IR Inten    --     14.6210                27.3122                 7.4747

                     28                     29                     30
                      A                      A                      A
 Frequencies --    753.7465               808.7427               855.2564
 Red. masses --      4.3976                 4.8476                 1.8900
 Frc consts  --      1.4720                 1.8681                 0.8145
 IR Inten    --     59.0913                75.1439                 3.2394

                     31                     32                     33
                      A                      A                      A
 Frequencies --    909.0913               947.2982               961.6424
 Red. masses --      4.9942                 3.5732                 2.9165
 Frc consts  --      2.4318                 1.8892                 1.5891
 IR Inten    --     26.9095                70.7093                32.7844

                     34                     35                     36
                      A                      A                      A
 Frequencies --    974.7286              1008.0692              1046.3769
 Red. masses --      5.1025                 3.3725                 3.0197
 Frc consts  --      2.8563                 2.0192                 1.9480
 IR Inten    --     18.7802                27.0814                13.3224

                     37                     38                     39
                      A                      A                      A
 Frequencies --   1050.4538              1090.7960              1125.4411
 Red. masses --      2.5524                 3.2599                 2.5461
 Frc consts  --      1.6594                 2.2853                 1.9001
 IR Inten    --     12.5236               133.2791                22.9648

                     40                     41                     42
                      A                      A                      A
 Frequencies --   1135.9750              1149.4121              1158.2742
 Red. masses --      2.6112                 3.3342                 4.3033
 Frc consts  --      1.9853                 2.5953                 3.4015
 IR Inten    --     16.8470               230.0257               135.7932

                     43                     44                     45
                      A                      A                      A
 Frequencies --   1167.9106              1177.0889              1185.0850
 Red. masses --      2.5362                 2.2925                 1.2777
 Frc consts  --      2.0383                 1.8714                 1.0573
 IR Inten    --     61.6111                84.6703                 8.9954

                     46                     47                     48
                      A                      A                      A
 Frequencies --   1187.2659              1190.6840              1196.9164
 Red. masses --      1.4396                 1.4250                 1.3920
 Frc consts  --      1.1956                 1.1903                 1.1750
 IR Inten    --     23.9959                 8.2099                 8.5054

                     49                     50                     51
                      A                      A                      A
 Frequencies --   1217.6185              1232.8545              1236.1143
 Red. masses --      1.5598                 1.5990                 1.7940
 Frc consts  --      1.3625                 1.4320                 1.6150
 IR Inten    --     36.4942                61.9257                41.9427

                     52                     53                     54
                      A                      A                      A
 Frequencies --   1242.5058              1252.8011              1282.9182
 Red. masses --      1.6528                 1.3577                 1.3925
 Frc consts  --      1.5033                 1.2555                 1.3503
 IR Inten    --     61.4601                 6.8091                45.1370

                     55                     56                     57
                      A                      A                      A
 Frequencies --   1305.1329              1325.8814              1337.9475
 Red. masses --      1.4240                 1.2259                 1.2712
 Frc consts  --      1.4292                 1.2698                 1.3408
 IR Inten    --     57.6078                32.0431                 4.1789

                     58                     59                     60
                      A                      A                      A
 Frequencies --   1351.7277              1405.1404              1426.3012
 Red. masses --      1.3319                 1.3918                 1.2325
 Frc consts  --      1.4339                 1.6191                 1.4772
 IR Inten    --      2.7117                 2.8752                 8.1571

                     61                     62                     63
                      A                      A                      A
 Frequencies --   1433.0234              1450.4351              1452.9081
 Red. masses --      1.3010                 1.2648                 1.2628
 Frc consts  --      1.5741                 1.5677                 1.5706
 IR Inten    --     19.8808                14.3585                43.1397

                     64                     65                     66
                      A                      A                      A
 Frequencies --   1493.7990              1498.9514              1500.7731
 Red. masses --      1.1259                 1.1595                 1.1276
 Frc consts  --      1.4803                 1.5350                 1.4964
 IR Inten    --     10.9824                 2.4599                 0.7511

                     67                     68                     69
                      A                      A                      A
 Frequencies --   1506.4771              1507.8619              1519.1068
 Red. masses --      1.1437                 1.0466                 1.0504
 Frc consts  --      1.5293                 1.4020                 1.4281
 IR Inten    --      2.4140                 9.0911                13.3067

                     70                     71                     72
                      A                      A                      A
 Frequencies --   1520.6583              1522.5104              1524.7738
 Red. masses --      1.0630                 1.0481                 1.0624
 Frc consts  --      1.4482                 1.4315                 1.4553
 IR Inten    --     12.6696                13.1539                30.5359

                     73                     74                     75
                      A                      A                      A
 Frequencies --   1524.9908              1529.3877              1538.4110
 Red. masses --      1.0647                 1.0493                 1.0573
 Frc consts  --      1.4588                 1.4460                 1.4743
 IR Inten    --      5.4714                13.6932                13.5923

                     76                     77                     78
                      A                      A                      A
 Frequencies --   1544.7526              1625.4966              3007.7823
 Red. masses --      1.0887                 5.9578                 1.0799
 Frc consts  --      1.5307                 9.2750                 5.7562
 IR Inten    --      3.1402               356.4857                 9.9822

                     79                     80                     81
                      A                      A                      A
 Frequencies --   3008.6849              3019.8288              3035.7127
 Red. masses --      1.0530                 1.0385                 1.0403
 Frc consts  --      5.6159                 5.5796                 5.6483
 IR Inten    --     31.9925                71.4352                35.0627

                     82                     83                     84
                      A                      A                      A
 Frequencies --   3048.8138              3049.8169              3057.4289
 Red. masses --      1.1057                 1.0331                 1.0512
 Frc consts  --      6.0557                 5.6615                 5.7897
 IR Inten    --     56.4195                48.1560                55.4141

                     85                     86                     87
                      A                      A                      A
 Frequencies --   3062.7484              3073.5962              3097.2612
 Red. masses --      1.0634                 1.1068                 1.0856
 Frc consts  --      5.8771                 6.1606                 6.1360
 IR Inten    --      1.0644                50.8675                18.1907

                     88                     89                     90
                      A                      A                      A
 Frequencies --   3112.8856              3118.8440              3130.2493
 Red. masses --      1.0980                 1.1075                 1.0956
 Frc consts  --      6.2685                 6.3470                 6.3250
 IR Inten    --     59.7487                22.1143                17.8971

                     91                     92                     93
                      A                      A                      A
 Frequencies --   3134.5734              3159.8389              3167.2152
 Red. masses --      1.0981                 1.0994                 1.1029
 Frc consts  --      6.3571                 6.4677                 6.5182
 IR Inten    --     19.2674                26.7653                19.7634

                     94                     95                     96
                      A                      A                      A
 Frequencies --   3170.1496              3183.7722              3205.6817
 Red. masses --      1.1034                 1.1026                 1.0935
 Frc consts  --      6.5334                 6.5848                 6.6211
 IR Inten    --     20.6288                15.4795                 1.4462

 - Thermochemistry -
 -------------------
 Temperature   298.150 Kelvin.  Pressure   1.00000 Atm.
 Atom     1 has atomic number  6 and mass  12.00000

 Molecular mass:   219.12325 amu.
 Principal axes and moments of inertia in atomic units:
                           1         2         3
     Eigenvalues --  1882.797304797.545396117.82943
           X            0.99998   0.00133  -0.00550
           Y           -0.00136   0.99998  -0.00581
           Z            0.00549   0.00582   0.99997
 This molecule is an asymmetric top.
 Rotational symmetry number  1.
 Warning -- assumption of classical behavior for rotation
           may cause significant error
 Rotational temperatures (Kelvin)      0.04600     0.01805     0.01416
 Rotational constants (GHZ):           0.95854     0.37618     0.29500
 Zero-point vibrational energy     774692.1 (Joules/Mol)
                                  185.15585 (Kcal/Mol)
 Warning -- explicit consideration of  27 degrees of freedom as
           vibrations may cause significant error
 Vibrational temperatures:     58.00    75.58    93.24   104.30   114.94
          (Kelvin)            166.89   187.73   193.02   252.18   271.11
                              281.35   305.74   323.03   352.57   373.55
                              387.62   400.76   417.82   464.36   493.74
                              597.39   646.09   710.52   726.13   753.54
                              842.24   883.76  1084.47  1163.60  1230.52
                             1307.98  1362.95  1383.59  1402.42  1450.39
                             1505.50  1511.37  1569.41  1619.26  1634.41
                             1653.75  1666.50  1680.36  1693.57  1705.07
                             1708.21  1713.13  1722.10  1751.88  1773.80
                             1778.49  1787.69  1802.50  1845.83  1877.80
                             1907.65  1925.01  1944.83  2021.68  2052.13
                             2061.80  2086.85  2090.41  2149.24  2156.66
                             2159.28  2167.48  2169.48  2185.66  2187.89
                             2190.55  2193.81  2194.12  2200.45  2213.43
                             2222.55  2338.73  4327.53  4328.83  4344.86
                             4367.71  4386.56  4388.01  4398.96  4406.61
                             4422.22  4456.27  4478.75  4487.32  4503.73
                             4509.95  4546.30  4556.92  4561.14  4580.74
                             4612.26

 Zero-point correction=                           0.295065 (Hartree/Particle)
 Thermal correction to Energy=                    0.312365
 Thermal correction to Enthalpy=                  0.313309
 Thermal correction to Gibbs Free Energy=         0.249701
 Sum of electronic and zero-point Energies=           -768.025547
 Sum of electronic and thermal Energies=              -768.008246
 Sum of electronic and thermal Enthalpies=            -768.007302
 Sum of electronic and thermal Free Energies=         -768.070911

                     E (Thermal)             CV                S
                      KCal/Mol        Cal/Mol-Kelvin    Cal/Mol-Kelvin
 Total                  196.012             61.550            133.876
 Electronic               0.000              0.000              0.000
 Translational            0.889              2.981             42.056
 Rotational               0.889              2.981             32.380
 Vibrational            194.235             55.588             59.440
 Vibration     1          0.594              1.981              5.244
 Vibration     2          0.596              1.977              4.720
 Vibration     3          0.597              1.971              4.305
 Vibration     4          0.599              1.967              4.085
 Vibration     5          0.600              1.963              3.894
 Vibration     6          0.608              1.936              3.166
 Vibration     7          0.612              1.923              2.939
 Vibration     8          0.613              1.919              2.886
 Vibration     9          0.627              1.873              2.378
 Vibration    10          0.633              1.856              2.243
 Vibration    11          0.636              1.846              2.175
 Vibration    12          0.644              1.822              2.022
 Vibration    13          0.649              1.804              1.922
 Vibration    14          0.660              1.771              1.766
 Vibration    15          0.668              1.746              1.664
 Vibration    16          0.674              1.729              1.600
 Vibration    17          0.679              1.713              1.543
 Vibration    18          0.686              1.692              1.472
 Vibration    19          0.708              1.630              1.296
 Vibration    20          0.722              1.589              1.197
 Vibration    21          0.779              1.437              0.908
 Vibration    22          0.808              1.363              0.799
 Vibration    23          0.849              1.264              0.674
 Vibration    24          0.860              1.240              0.647
 Vibration    25          0.879              1.197              0.601
 Vibration    26          0.942              1.063              0.475
 Vibration    27          0.974              1.002              0.426

 Optimization completed.
    -- Stationary point found.
 Normal termination of Gaussian 16 at Fri May 24 09:26:59 2019.
