 Gaussian 16, Revision A.03,
 Gaussian 16:  ES64L-G16RevA.03 25-Dec-2016

 -------------------------------------------------------------------
 #p b3lyp 6-31g* opt freq=noraman scrf=(pcm,solvent=tetrahydrofuran)
 -------------------------------------------------------------------

 -----
 title
 -----
 Symbolic Z-matrix:
 Charge =  1 Multiplicity = 1

 SCF Done:  E(RB3LYP) =  -768.325170897     A.U. after   14 cycles
 Optimization completed.
    -- Stationary point found.
 Normal termination of Gaussian 16 at Fri May 24 08:33:52 2019.

 --------------------------------------------------------------------
 #P Geom=AllCheck Guess=TCheck SCRF=Check GenChk RB3LYP/6-31G(d) Freq
 --------------------------------------------------------------------

 Structure from the checkpoint file:  "/scratch/Gau-28694.chk"
 -----
 title
 -----
 Charge =  1 Multiplicity = 1

                         Standard orientation:
 ---------------------------------------------------------------------
 Center     Atomic      Atomic             Coordinates (Angstroms)
 Number     Number       Type             X           Y           Z
 ---------------------------------------------------------------------
      1          6           0       -1.080562    0.414028    0.129580
      2          6           0       -1.159851   -1.107448    0.443622
      3          6           0       -0.197585   -1.915119   -0.371801
      4          6           0        1.244668   -0.020381   -0.901184
      5          6           0        0.409273    0.806469    0.097408
      6          1           0       -0.368781   -2.986243   -0.499459
      7          1           0       -0.793629   -1.226170    1.479275
      8          1           0       -1.561009    0.611476   -0.839588
      9          1           0        1.077801    0.289419   -1.934262
     10          1           0        0.813886    0.633260    1.098730
     11          8           0        0.831573   -1.480967   -0.936824
     12          8           0       -2.424302   -1.715481    0.429021
     13          8           0       -1.665569    1.176863    1.150292
     14          8           0        0.671675    2.167622   -0.166292
     15          6           0        2.728510   -0.050374   -0.588593
     16          1           0        3.091144    0.986654   -0.654947
     17          1           0        3.256320   -0.647686   -1.346657
     18          8           0        2.886405   -0.589893    0.701649
     19          6           0       -3.123393   -1.703603   -0.826213
     20          1           0       -3.977721   -2.367416   -0.692148
     21          1           0       -3.481972   -0.701768   -1.082034
     22          1           0       -2.500376   -2.088033   -1.645542
     23          6           0       -3.086753    1.331590    1.092381
     24          1           0       -3.339466    2.069866    1.855300
     25          1           0       -3.401779    1.709282    0.110667
     26          1           0       -3.603327    0.391445    1.309960
     27          6           0       -0.078272    2.805866   -1.203347
     28          1           0       -1.121932    2.951859   -0.905048
     29          1           0        0.391116    3.780631   -1.344956
     30          1           0       -0.042030    2.257778   -2.153917
     31          6           0        4.242881   -0.606988    1.134877
     32          1           0        4.246386   -1.038014    2.137610
     33          1           0        4.863557   -1.224340    0.471032
     34          1           0        4.660059    0.408609    1.172835
 ---------------------------------------------------------------------

 SCF Done:  E(RB3LYP) =  -768.325170897     A.U. after    1 cycles

 The electronic state is 1-A.
 Alpha  occ. eigenvalues --  -19.33397 -19.21315 -19.19438 -19.19147 -19.18620
 Alpha  occ. eigenvalues --  -10.40005 -10.32270 -10.31997 -10.29864 -10.29475
 Alpha  occ. eigenvalues --  -10.27796 -10.26632 -10.25399 -10.25001 -10.24757
 Alpha  occ. eigenvalues --   -1.21997  -1.09921  -1.08274  -1.06948  -1.06371
 Alpha  occ. eigenvalues --   -0.87350  -0.85884  -0.77795  -0.75388  -0.73843
 Alpha  occ. eigenvalues --   -0.72250  -0.69073  -0.67673  -0.65992  -0.62402
 Alpha  occ. eigenvalues --   -0.60535  -0.58610  -0.56156  -0.55393  -0.53887
 Alpha  occ. eigenvalues --   -0.52374  -0.52016  -0.50982  -0.50309  -0.49215
 Alpha  occ. eigenvalues --   -0.48605  -0.48053  -0.46571  -0.46096  -0.45237
 Alpha  occ. eigenvalues --   -0.43967  -0.43633  -0.42849  -0.41958  -0.41180
 Alpha  occ. eigenvalues --   -0.39671  -0.37328  -0.36080  -0.35724  -0.34359
 Alpha  occ. eigenvalues --   -0.33271  -0.30079  -0.29126  -0.28881
 Alpha virt. eigenvalues --   -0.15527  -0.00256   0.04485   0.04815   0.06052
 Alpha virt. eigenvalues --    0.07206   0.07864   0.08722   0.09532   0.10767
 Alpha virt. eigenvalues --    0.11017   0.11715   0.11832   0.12847   0.12921

 Mulliken charges:
               1
     1  C    0.092196
     2  C    0.039871
     3  C    0.279075
     4  C    0.040391
     5  C    0.103195
     6  H    0.282857
     7  H    0.262128
     8  H    0.172582
     9  H    0.236838
    10  H    0.205052
    11  O   -0.296855
    12  O   -0.468168
    13  O   -0.480201
    14  O   -0.480639
    15  C   -0.023635
    16  H    0.186342
    17  H    0.177298
    18  O   -0.485195
    19  C   -0.245863
    20  H    0.204938
    21  H    0.177248
    22  H    0.164667
    23  C   -0.230055
    24  H    0.185606
    25  H    0.158857
    26  H    0.173280
    27  C   -0.238624
    28  H    0.172903
    29  H    0.190595
    30  H    0.157399
    31  C   -0.211087
    32  H    0.179103
    33  H    0.157462
    34  H    0.160441
 Sum of Mulliken charges =   1.00000

 Dipole moment (field-independent basis, Debye):
    X=             -0.5616    Y=             -3.7643    Z=             -4.8417  Tot=              6.1585
 Quadrupole moment (field-independent basis, Debye-Ang):
   XX=            -57.1278   YY=            -73.5691   ZZ=            -80.6578
   XY=             -0.9112   XZ=              3.2403   YZ=             -1.2490

  Exact polarizability: 161.300   2.052 145.124  -4.876  -1.229 123.771
 Approx polarizability: 169.140   4.632 163.667  -7.621  -0.643 153.048

                      1                      2                      3
                      A                      A                      A
 Frequencies --     30.2519                59.4206                74.8270
 Red. masses --      4.3923                 3.3645                 3.3446
 Frc consts  --      0.0024                 0.0070                 0.0110
 IR Inten    --      0.6846                 1.0101                 1.5641

                      4                      5                      6
                      A                      A                      A
 Frequencies --    107.5974               113.4816               115.3260
 Red. masses --      2.8743                 2.3472                 2.2368
 Frc consts  --      0.0196                 0.0178                 0.0175
 IR Inten    --      6.8408                 3.8738                 8.5172

                      7                      8                      9
                      A                      A                      A
 Frequencies --    123.2807               140.3137               174.1797
 Red. masses --      2.2883                 2.3262                 2.3596
 Frc consts  --      0.0205                 0.0270                 0.0422
 IR Inten    --      1.9672                 2.9295                 2.8263

                     10                     11                     12
                      A                      A                      A
 Frequencies --    179.8039               189.6227               208.3336
 Red. masses --      2.1459                 1.2682                 1.2312
 Frc consts  --      0.0409                 0.0269                 0.0315
 IR Inten    --      0.1304                 1.2801                 0.6686

                     13                     14                     15
                      A                      A                      A
 Frequencies --    230.0097               243.3653               254.7697
 Red. masses --      1.4732                 2.8749                 3.3551
 Frc consts  --      0.0459                 0.1003                 0.1283
 IR Inten    --      6.4878                 3.3534                15.6018

                     16                     17                     18
                      A                      A                      A
 Frequencies --    275.5882               298.7503               309.8725
 Red. masses --      2.4621                 4.3333                 3.4714
 Frc consts  --      0.1102                 0.2279                 0.1964
 IR Inten    --      4.7535                13.6297                 1.4235

                     19                     20                     21
                      A                      A                      A
 Frequencies --    336.0556               361.5633               407.6144
 Red. masses --      3.3892                 4.0447                 4.5878
 Frc consts  --      0.2255                 0.3115                 0.4491
 IR Inten    --      1.4743                 6.3982                 3.7248

                     22                     23                     24
                      A                      A                      A
 Frequencies --    439.7830               471.5843               497.9189
 Red. masses --      5.0253                 4.6839                 3.6983
 Frc consts  --      0.5726                 0.6137                 0.5402
 IR Inten    --     14.3367                15.4207                 8.9749

                     25                     26                     27
                      A                      A                      A
 Frequencies --    557.4215               612.3131               659.5658
 Red. masses --      3.6308                 3.5885                 3.2215
 Frc consts  --      0.6647                 0.7927                 0.8257
 IR Inten    --     11.1022                36.6025                14.8268

                     28                     29                     30
                      A                      A                      A
 Frequencies --    713.2211               748.1505               845.1338
 Red. masses --      5.5053                 4.3100                 2.3830
 Frc consts  --      1.6500                 1.4214                 1.0028
 IR Inten    --     21.4541                76.5468                29.7199

                     31                     32                     33
                      A                      A                      A
 Frequencies --    911.2137               922.4160               955.6085
 Red. masses --      3.0099                 3.8222                 4.2954
 Frc consts  --      1.4725                 1.9161                 2.3111
 IR Inten    --      2.8702                10.6999                82.1419

                     34                     35                     36
                      A                      A                      A
 Frequencies --    989.5735              1008.8468              1047.5046
 Red. masses --      3.7231                 2.4413                 3.5847
 Frc consts  --      2.1481                 1.4639                 2.3175
 IR Inten    --      4.2150                24.6138                85.7003

                     37                     38                     39
                      A                      A                      A
 Frequencies --   1055.1139              1077.9965              1116.0780
 Red. masses --      2.3018                 3.2015                 2.7228
 Frc consts  --      1.5098                 2.1920                 1.9983
 IR Inten    --     49.5024                53.3738                 0.2314

                     40                     41                     42
                      A                      A                      A
 Frequencies --   1129.7928              1138.4786              1160.6853
 Red. masses --      2.6156                 3.3643                 3.3736
 Frc consts  --      1.9670                 2.5692                 2.6778
 IR Inten    --     40.7270               123.9701                99.1736

                     43                     44                     45
                      A                      A                      A
 Frequencies --   1161.6968              1171.1272              1182.4779
 Red. masses --      3.1561                 1.9839                 1.3583
 Frc consts  --      2.5095                 1.6032                 1.1190
 IR Inten    --    361.3479                 4.6007                 9.3271

                     46                     47                     48
                      A                      A                      A
 Frequencies --   1183.6327              1189.3026              1194.2303
 Red. masses --      1.2813                 1.4494                 1.6358
 Frc consts  --      1.0577                 1.2079                 1.3745
 IR Inten    --      6.9314                29.6383                21.4205

                     49                     50                     51
                      A                      A                      A
 Frequencies --   1220.3990              1225.2415              1231.3121
 Red. masses --      1.5786                 1.5929                 1.7044
 Frc consts  --      1.3853                 1.4089                 1.5225
 IR Inten    --     34.6716                47.7753               104.6499

                     52                     53                     54
                      A                      A                      A
 Frequencies --   1240.8781              1267.0434              1283.0667
 Red. masses --      1.7722                 1.3792                 1.2843
 Frc consts  --      1.6078                 1.3045                 1.2457
 IR Inten    --      4.3508                14.9217                25.6817

                     55                     56                     57
                      A                      A                      A
 Frequencies --   1299.8331              1324.8832              1351.1868
 Red. masses --      1.3216                 1.2257                 1.2873
 Frc consts  --      1.3156                 1.2676                 1.3847
 IR Inten    --     18.3958                42.5219                 0.6359

                     58                     59                     60
                      A                      A                      A
 Frequencies --   1367.9440              1407.4766              1415.8438
 Red. masses --      1.2395                 1.3438                 1.3374
 Frc consts  --      1.3666                 1.5685                 1.5795
 IR Inten    --      4.5875                11.0364                29.1805

                     61                     62                     63
                      A                      A                      A
 Frequencies --   1417.0081              1432.3608              1468.9989
 Red. masses --      1.4253                 1.3535                 1.1729
 Frc consts  --      1.6862                 1.6361                 1.4912
 IR Inten    --     33.5353                29.5817                 6.8383

                     64                     65                     66
                      A                      A                      A
 Frequencies --   1498.1919              1499.5315              1500.0871
 Red. masses --      1.1073                 1.1308                 1.1364
 Frc consts  --      1.4644                 1.4981                 1.5067
 IR Inten    --      1.4264                 7.6550                 3.9045

                     67                     68                     69
                      A                      A                      A
 Frequencies --   1503.9636              1511.2512              1511.3688
 Red. masses --      1.1400                 1.0464                 1.0768
 Frc consts  --      1.5193                 1.4080                 1.4492
 IR Inten    --      0.7359                 9.8721                 2.4342

                     70                     71                     72
                      A                      A                      A
 Frequencies --   1514.3389              1514.8136              1520.2566
 Red. masses --      1.0588                 1.0658                 1.0690
 Frc consts  --      1.4306                 1.4409                 1.4557
 IR Inten    --     16.5263                 3.6518                17.5214

                     73                     74                     75
                      A                      A                      A
 Frequencies --   1528.3411              1534.4620              1537.0315
 Red. masses --      1.0514                 1.0529                 1.0544
 Frc consts  --      1.4470                 1.4607                 1.4676
 IR Inten    --     19.9357                27.1606                 2.3918

                     76                     77                     78
                      A                      A                      A
 Frequencies --   1538.4299              1659.9959              2993.0586
 Red. masses --      1.0918                 7.5908                 1.0789
 Frc consts  --      1.5225                12.3240                 5.6948
 IR Inten    --      8.2996               241.3914                25.5974

                     79                     80                     81
                      A                      A                      A
 Frequencies --   3018.8637              3025.8420              3030.9359
 Red. masses --      1.0481                 1.0418                 1.0627
 Frc consts  --      5.6280                 5.6198                 5.7521
 IR Inten    --     38.9922                63.9451                 3.6371

                     82                     83                     84
                      A                      A                      A
 Frequencies --   3035.1934              3038.7730              3039.8052
 Red. masses --      1.0564                 1.0413                 1.0400
 Frc consts  --      5.7340                 5.6651                 5.6619
 IR Inten    --     24.1386                23.6099                94.8868

                     85                     86                     87
                      A                      A                      A
 Frequencies --   3058.6598              3080.7762              3108.7614
 Red. masses --      1.1072                 1.1071                 1.1018
 Frc consts  --      6.1031                 6.1911                 6.2735
 IR Inten    --     47.3545                46.7757                50.8921

                     88                     89                     90
                      A                      A                      A
 Frequencies --   3110.4352              3115.2744              3116.4453
 Red. masses --      1.0857                 1.1004                 1.0963
 Frc consts  --      6.1888                 6.2923                 6.2735
 IR Inten    --      9.7677                33.4220                46.1300

                     91                     92                     93
                      A                      A                      A
 Frequencies --   3145.7400              3161.3446              3165.2431
 Red. masses --      1.0873                 1.1001                 1.1031
 Frc consts  --      6.3396                 6.4779                 6.5117
 IR Inten    --      1.8843                25.4340                17.1485

                     94                     95                     96
                      A                      A                      A
 Frequencies --   3165.6299              3181.3227              3190.1042
 Red. masses --      1.1018                 1.1018                 1.0940
 Frc consts  --      6.5053                 6.5701                 6.5598
 IR Inten    --     29.5408                13.5629                 1.1531

 - Thermochemistry -
 -------------------
 Temperature   298.150 Kelvin.  Pressure   1.00000 Atm.
 Atom     1 has atomic number  6 and mass  12.00000

 Molecular mass:   219.12325 amu.
 Principal axes and moments of inertia in atomic units:
                           1         2         3
     Eigenvalues --  2227.681584258.924735391.25481
           X            0.99991  -0.00772   0.01072
           Y            0.00790   0.99984  -0.01607
           Z           -0.01059   0.01615   0.99981
 This molecule is an asymmetric top.
 Rotational symmetry number  1.
 Warning -- assumption of classical behavior for rotation
           may cause significant error
 Rotational temperatures (Kelvin)      0.03888     0.02034     0.01607
 Rotational constants (GHZ):           0.81014     0.42376     0.33475
 Zero-point vibrational energy     774478.2 (Joules/Mol)
                                  185.10473 (Kcal/Mol)
 Warning -- explicit consideration of  26 degrees of freedom as
           vibrations may cause significant error
 Vibrational temperatures:     43.53    85.49   107.66   154.81   163.27
          (Kelvin)            165.93   177.37   201.88   250.61   258.70
                              272.82   299.75   330.93   350.15   366.56
                              396.51   429.84   445.84   483.51   520.21
                              586.47   632.75   678.50   716.39   802.01
                              880.98   948.97  1026.17  1076.42  1215.96
                             1311.03  1327.15  1374.91  1423.78  1451.51
                             1507.13  1518.07  1551.00  1605.79  1625.52
                             1638.02  1669.97  1671.42  1684.99  1701.32
                             1702.98  1711.14  1718.23  1755.88  1762.85
                             1771.58  1785.35  1822.99  1846.05  1870.17
                             1906.21  1944.06  1968.17  2025.04  2037.08
                             2038.76  2060.85  2113.56  2155.56  2157.49
                             2158.29  2163.87  2174.35  2174.52  2178.80
                             2179.48  2187.31  2198.94  2207.75  2211.45
                             2213.46  2388.36  4306.34  4343.47  4353.51
                             4360.84  4366.97  4372.12  4373.60  4400.73
                             4432.55  4472.81  4475.22  4482.19  4483.87
                             4526.02  4548.47  4554.08  4554.64  4577.21
                             4589.85

 Zero-point correction=                           0.294983 (Hartree/Particle)
 Thermal correction to Energy=                    0.312100
 Thermal correction to Enthalpy=                  0.313044
 Thermal correction to Gibbs Free Energy=         0.250202
 Sum of electronic and zero-point Energies=           -768.030188
 Sum of electronic and thermal Energies=              -768.013071
 Sum of electronic and thermal Enthalpies=            -768.012126
 Sum of electronic and thermal Free Energies=         -768.074969

                     E (Thermal)             CV                S
                      KCal/Mol        Cal/Mol-Kelvin    Cal/Mol-Kelvin
 Total                  195.846             61.504            132.264
 Electronic               0.000              0.000              0.000
 Translational            0.889              2.981             42.056
 Rotational               0.889              2.981             32.303
 Vibrational            194.068             55.542             57.905
 Vibration     1          0.594              1.984              5.813
 Vibration     2          0.597              1.974              4.476
 Vibration     3          0.599              1.966              4.022
 Vibration     4          0.606              1.943              3.312
 Vibration     5          0.607              1.938              3.208
 Vibration     6          0.608              1.937              3.177
 Vibration     7          0.610              1.930              3.048
 Vibration     8          0.615              1.913              2.800
 Vibration     9          0.627              1.874              2.390
 Vibration    10          0.629              1.867              2.330
 Vibration    11          0.633              1.854              2.232
 Vibration    12          0.642              1.828              2.058
 Vibration    13          0.652              1.795              1.879
 Vibration    14          0.659              1.774              1.778
 Vibration    15          0.665              1.755              1.697
 Vibration    16          0.677              1.719              1.561
 Vibration    17          0.692              1.676              1.424
 Vibration    18          0.699              1.655              1.363
 Vibration    19          0.717              1.603              1.231
 Vibration    20          0.736              1.551              1.115
 Vibration    21          0.772              1.454              0.935
 Vibration    22          0.800              1.383              0.827
 Vibration    23          0.829              1.313              0.733
 Vibration    24          0.853              1.255              0.663
 Vibration    25          0.913              1.123              0.529
 Vibration    26          0.972              1.006              0.429

 Optimization completed.
    -- Stationary point found.
 Normal termination of Gaussian 16 at Fri May 24 08:56:16 2019.
