 Gaussian 16, Revision A.03,
 Gaussian 16:  ES64L-G16RevA.03 25-Dec-2016

 -------------------------------------------------------------------
 #p b3lyp 6-31g* opt freq=noraman scrf=(pcm,solvent=tetrahydrofuran)
 -------------------------------------------------------------------

 -----
 title
 -----
 Symbolic Z-matrix:
 Charge =  1 Multiplicity = 1

 SCF Done:  E(RB3LYP) =  -768.328078424     A.U. after   13 cycles
 Optimization completed.
    -- Stationary point found.
 Normal termination of Gaussian 16 at Fri May 24 08:34:58 2019.

 --------------------------------------------------------------------
 #P Geom=AllCheck Guess=TCheck SCRF=Check GenChk RB3LYP/6-31G(d) Freq
 --------------------------------------------------------------------

 Structure from the checkpoint file:  "/scratch/Gau-193014.chk"
 -----
 title
 -----
 Charge =  1 Multiplicity = 1

                         Standard orientation:
 ---------------------------------------------------------------------
 Center     Atomic      Atomic             Coordinates (Angstroms)
 Number     Number       Type             X           Y           Z
 ---------------------------------------------------------------------
      1          6           0        0.571357    0.634582    0.564850
      2          6           0        1.311013    0.749102   -0.815011
      3          6           0        0.966129   -0.327579   -1.791880
      4          6           0       -0.980699   -1.055735   -0.571024
      5          6           0       -0.152176   -0.722348    0.661784
      6          1           0        1.609577   -0.490185   -2.659079
      7          1           0        0.864323    1.631598   -1.312429
      8          1           0        1.337001    0.679643    1.350162
      9          1           0       -1.270693   -2.105660   -0.540735
     10          1           0       -0.837076   -0.709521    1.517075
     11          8           0       -0.071556   -1.036439   -1.772795
     12          8           0        2.688901    0.993407   -0.809775
     13          8           0       -0.374850    1.660225    0.735380
     14          8           0        0.825093   -1.744695    0.753695
     15          6           0       -2.200810   -0.188442   -0.884518
     16          1           0       -2.624028   -0.502096   -1.850844
     17          1           0       -1.929620    0.872845   -0.945105
     18          8           0       -3.089795   -0.435253    0.180082
     19          6           0        3.515420   -0.039160   -0.248554
     20          1           0        3.326389   -1.011552   -0.719684
     21          1           0        4.541651    0.267786   -0.451230
     22          1           0        3.371733   -0.130504    0.832789
     23          6           0        0.184233    2.928692    1.083847
     24          1           0        0.776490    2.851963    2.004487
     25          1           0        0.818135    3.328845    0.280904
     26          1           0       -0.658358    3.602793    1.243346
     27          6           0        1.196810   -2.099765    2.089306
     28          1           0        1.972479   -2.861470    1.998334
     29          1           0        1.596423   -1.241306    2.643363
     30          1           0        0.337621   -2.511928    2.631742
     31          6           0       -4.286267    0.331142    0.086995
     32          1           0       -4.897267    0.061068    0.950251
     33          1           0       -4.071146    1.408210    0.114713
     34          1           0       -4.836037    0.098587   -0.835525
 ---------------------------------------------------------------------

 SCF Done:  E(RB3LYP) =  -768.328078424     A.U. after    1 cycles

 The electronic state is 1-A.
 Alpha  occ. eigenvalues --  -19.32957 -19.20922 -19.19942 -19.19716 -19.18498
 Alpha  occ. eigenvalues --  -10.39778 -10.31993 -10.31800 -10.29802 -10.29540
 Alpha  occ. eigenvalues --  -10.27725 -10.26177 -10.25655 -10.25516 -10.24660
 Alpha  occ. eigenvalues --   -1.21749  -1.09663  -1.08405  -1.07457  -1.06760
 Alpha  occ. eigenvalues --   -0.87216  -0.85330  -0.77858  -0.74963  -0.74405
 Alpha  occ. eigenvalues --   -0.71127  -0.69072  -0.68466  -0.66484  -0.62035
 Alpha  occ. eigenvalues --   -0.59213  -0.58833  -0.56704  -0.54358  -0.53964
 Alpha  occ. eigenvalues --   -0.52808  -0.51712  -0.50514  -0.50392  -0.49398
 Alpha  occ. eigenvalues --   -0.48451  -0.47556  -0.47291  -0.46596  -0.45858
 Alpha  occ. eigenvalues --   -0.44646  -0.43177  -0.42566  -0.41629  -0.40124
 Alpha  occ. eigenvalues --   -0.39678  -0.37025  -0.36904  -0.35643  -0.35285
 Alpha  occ. eigenvalues --   -0.32910  -0.30734  -0.29433  -0.28638
 Alpha virt. eigenvalues --   -0.15155   0.00453   0.03561   0.04450   0.06479
 Alpha virt. eigenvalues --    0.06987   0.08381   0.08913   0.09896   0.10201
 Alpha virt. eigenvalues --    0.11109   0.11710   0.12324   0.12796   0.12971

 Mulliken charges:
               1
     1  C    0.127469
     2  C    0.028930
     3  C    0.276578
     4  C    0.060245
     5  C    0.053300
     6  H    0.279632
     7  H    0.266322
     8  H    0.187743
     9  H    0.240410
    10  H    0.211285
    11  O   -0.308597
    12  O   -0.468019
    13  O   -0.484642
    14  O   -0.494087
    15  C   -0.016835
    16  H    0.171923
    17  H    0.170964
    18  O   -0.480912
    19  C   -0.240262
    20  H    0.167222
    21  H    0.197922
    22  H    0.175186
    23  C   -0.228821
    24  H    0.169145
    25  H    0.164148
    26  H    0.189204
    27  C   -0.225364
    28  H    0.188575
    29  H    0.163608
    30  H    0.173962
    31  C   -0.210189
    32  H    0.179625
    33  H    0.157497
    34  H    0.156834
 Sum of Mulliken charges =   1.00000

 Dipole moment (field-independent basis, Debye):
    X=              1.9404    Y=             -0.0262    Z=             -2.2189  Tot=              2.9478
 Quadrupole moment (field-independent basis, Debye-Ang):
   XX=            -64.8991   YY=            -77.5225   ZZ=            -70.6596
   XY=             -5.0844   XZ=              2.5077   YZ=              0.0893

  Exact polarizability: 159.260  -0.061 136.036  -3.072   1.392 132.294
 Approx polarizability: 170.726   3.864 158.456  -4.450   2.416 154.977

                      1                      2                      3
                      A                      A                      A
 Frequencies --     47.4394                59.4605                69.8343
 Red. masses --      3.6654                 3.8818                 2.9212
 Frc consts  --      0.0049                 0.0081                 0.0084
 IR Inten    --      0.1883                 1.6337                 5.6947

                      4                      5                      6
                      A                      A                      A
 Frequencies --     79.6657                88.5192               108.2182
 Red. masses --      2.8491                 3.0065                 2.7577
 Frc consts  --      0.0107                 0.0139                 0.0190
 IR Inten    --      5.5595                 3.2491                 1.9283

                      7                      8                      9
                      A                      A                      A
 Frequencies --    128.5176               145.5514               159.0982
 Red. masses --      2.9826                 2.0945                 2.6248
 Frc consts  --      0.0290                 0.0261                 0.0391
 IR Inten    --      8.2557                 6.7947                 5.3922

                     10                     11                     12
                      A                      A                      A
 Frequencies --    181.2604               182.3292               196.1229
 Red. masses --      1.4503                 1.6915                 1.1134
 Frc consts  --      0.0281                 0.0331                 0.0252
 IR Inten    --      1.5988                 0.9343                 0.2035

                     13                     14                     15
                      A                      A                      A
 Frequencies --    203.3507               237.3679               273.3661
 Red. masses --      1.5699                 1.5686                 2.8703
 Frc consts  --      0.0382                 0.0521                 0.1264
 IR Inten    --      1.4934                 9.8780                 2.7519

                     16                     17                     18
                      A                      A                      A
 Frequencies --    279.4077               302.7614               324.4622
 Red. masses --      3.7671                 3.3243                 3.3612
 Frc consts  --      0.1733                 0.1795                 0.2085
 IR Inten    --      3.6267                 0.7524                 7.3378

                     19                     20                     21
                      A                      A                      A
 Frequencies --    358.2630               382.6485               397.5819
 Red. masses --      4.9075                 4.2222                 5.0415
 Frc consts  --      0.3711                 0.3642                 0.4695
 IR Inten    --      7.7901                22.1867                 2.6110

                     22                     23                     24
                      A                      A                      A
 Frequencies --    420.5857               493.8582               522.1084
 Red. masses --      4.0894                 4.4545                 4.5479
 Frc consts  --      0.4262                 0.6401                 0.7304
 IR Inten    --     26.9834                12.4104                18.8514

                     25                     26                     27
                      A                      A                      A
 Frequencies --    558.3906               597.8689               618.5470
 Red. masses --      3.6999                 4.9503                 3.8125
 Frc consts  --      0.6797                 1.0425                 0.8594
 IR Inten    --     16.7881                 0.4689                12.6208

                     28                     29                     30
                      A                      A                      A
 Frequencies --    740.6729               785.5960               860.6156
 Red. masses --      4.1826                 2.8650                 2.6534
 Frc consts  --      1.3519                 1.0418                 1.1579
 IR Inten    --     75.4199                 4.7042                13.5045

                     31                     32                     33
                      A                      A                      A
 Frequencies --    913.4411               958.8498               960.2960
 Red. masses --      3.0576                 4.2438                 3.1881
 Frc consts  --      1.5031                 2.2989                 1.7322
 IR Inten    --      4.3090                36.4726                65.5959

                     34                     35                     36
                      A                      A                      A
 Frequencies --    986.1790               999.7360              1027.2758
 Red. masses --      3.0903                 3.1665                 2.6383
 Frc consts  --      1.7708                 1.8646                 1.6404
 IR Inten    --     22.3849                21.3961                18.6864

                     37                     38                     39
                      A                      A                      A
 Frequencies --   1047.2011              1085.9249              1121.9818
 Red. masses --      3.0850                 2.2694                 3.7393
 Frc consts  --      1.9932                 1.5768                 2.7734
 IR Inten    --     27.5042                84.0400                97.3859

                     40                     41                     42
                      A                      A                      A
 Frequencies --   1129.5016              1137.0811              1152.7448
 Red. masses --      2.2168                 2.3216                 3.1249
 Frc consts  --      1.6663                 1.7686                 2.4465
 IR Inten    --     93.1665                39.1045               320.3677

                     43                     44                     45
                      A                      A                      A
 Frequencies --   1159.9432              1169.8807              1182.7612
 Red. masses --      4.2236                 3.1800                 1.3782
 Frc consts  --      3.3481                 2.5642                 1.1359
 IR Inten    --    192.6138                55.7591                27.6431

                     46                     47                     48
                      A                      A                      A
 Frequencies --   1185.7032              1189.7400              1190.0278
 Red. masses --      1.2742                 1.2989                 1.3289
 Frc consts  --      1.0554                 1.0833                 1.1088
 IR Inten    --      6.9480                 9.2624                 5.4437

                     49                     50                     51
                      A                      A                      A
 Frequencies --   1219.0609              1227.8548              1228.4007
 Red. masses --      1.4555                 1.6378                 1.5735
 Frc consts  --      1.2744                 1.4548                 1.3990
 IR Inten    --      7.9022                86.8022                10.0638

                     52                     53                     54
                      A                      A                      A
 Frequencies --   1234.7034              1247.4676              1264.8152
 Red. masses --      1.6304                 1.7284                 1.2531
 Frc consts  --      1.4644                 1.5848                 1.1812
 IR Inten    --     32.6227                44.7430                 8.5702

                     55                     56                     57
                      A                      A                      A
 Frequencies --   1303.9738              1331.3565              1339.5246
 Red. masses --      1.4383                 1.2673                 1.2284
 Frc consts  --      1.4409                 1.3234                 1.2986
 IR Inten    --     24.1631                 6.3465                23.7715

                     58                     59                     60
                      A                      A                      A
 Frequencies --   1346.8420              1365.7076              1390.3534
 Red. masses --      1.2701                 1.3463                 1.4013
 Frc consts  --      1.3574                 1.4795                 1.5960
 IR Inten    --      1.9967                20.2851                31.9433

                     61                     62                     63
                      A                      A                      A
 Frequencies --   1406.8454              1427.4520              1446.9480
 Red. masses --      1.3633                 1.5202                 1.3262
 Frc consts  --      1.5897                 1.8250                 1.6360
 IR Inten    --     38.6826                10.1079                29.1708

                     64                     65                     66
                      A                      A                      A
 Frequencies --   1499.3235              1499.8295              1501.3148
 Red. masses --      1.1390                 1.1216                 1.1306
 Frc consts  --      1.5086                 1.4866                 1.5014
 IR Inten    --      1.7478                 1.3977                 3.8633

                     67                     68                     69
                      A                      A                      A
 Frequencies --   1502.5486              1509.4344              1512.5509
 Red. masses --      1.1278                 1.0471                 1.0564
 Frc consts  --      1.5002                 1.4057                 1.4240
 IR Inten    --      4.5163                 8.2421                 7.0317

                     70                     71                     72
                      A                      A                      A
 Frequencies --   1513.6816              1516.2341              1522.9743
 Red. masses --      1.0565                 1.0768                 1.0565
 Frc consts  --      1.4263                 1.4586                 1.4439
 IR Inten    --     13.7238                 4.2475                20.1211

                     73                     74                     75
                      A                      A                      A
 Frequencies --   1525.9332              1528.2090              1530.1355
 Red. masses --      1.0601                 1.0639                 1.0580
 Frc consts  --      1.4544                 1.4639                 1.4594
 IR Inten    --      5.9722                 7.9566                25.2156

                     76                     77                     78
                      A                      A                      A
 Frequencies --   1550.5907              1640.8001              2976.8816
 Red. masses --      1.0871                 6.2708                 1.0776
 Frc consts  --      1.5400                 9.9469                 5.6263
 IR Inten    --      5.5452               202.9765                22.4919

                     79                     80                     81
                      A                      A                      A
 Frequencies --   3020.4124              3024.9508              3029.3136
 Red. masses --      1.0459                 1.0495                 1.0360
 Frc consts  --      5.6215                 5.6579                 5.6013
 IR Inten    --     40.9013                72.5571                49.1515

                     82                     83                     84
                      A                      A                      A
 Frequencies --   3040.4359              3047.3723              3062.4146
 Red. masses --      1.0336                 1.0366                 1.0836
 Frc consts  --      5.6293                 5.6718                 5.9876
 IR Inten    --     45.6194                27.1595                30.8197

                     85                     86                     87
                      A                      A                      A
 Frequencies --   3075.7196              3082.9170              3092.0860
 Red. masses --      1.1027                 1.1056                 1.1046
 Frc consts  --      6.1459                 6.1909                 6.2227
 IR Inten    --     81.9543                 5.5037                48.5574

                     88                     89                     90
                      A                      A                      A
 Frequencies --   3094.5292              3104.4518              3118.7991
 Red. masses --      1.0862                 1.1068                 1.1030
 Frc consts  --      6.1286                 6.2850                 6.3211
 IR Inten    --      4.2448                47.1304                44.0058

                     91                     92                     93
                      A                      A                      A
 Frequencies --   3160.6533              3163.8017              3170.1349
 Red. masses --      1.0999                 1.0880                 1.1020
 Frc consts  --      6.4738                 6.4167                 6.5254
 IR Inten    --     26.0490                 0.4654                20.6081

                     94                     95                     96
                      A                      A                      A
 Frequencies --   3171.5238              3181.2284              3190.0117
 Red. masses --      1.1007                 1.1022                 1.0944
 Frc consts  --      6.5229                 6.5721                 6.5617
 IR Inten    --     21.1906                18.4587                 2.5745

 - Thermochemistry -
 -------------------
 Temperature   298.150 Kelvin.  Pressure   1.00000 Atm.
 Atom     1 has atomic number  6 and mass  12.00000

 Molecular mass:   219.12325 amu.
 Principal axes and moments of inertia in atomic units:
                           1         2         3
     Eigenvalues --  2282.193094169.390134600.10761
           X            0.99970  -0.01929   0.01541
           Y            0.01975   0.99935  -0.03010
           Z           -0.01482   0.03039   0.99943
 This molecule is an asymmetric top.
 Rotational symmetry number  1.
 Warning -- assumption of classical behavior for rotation
           may cause significant error
 Rotational temperatures (Kelvin)      0.03795     0.02077     0.01883
 Rotational constants (GHZ):           0.79079     0.43285     0.39233
 Zero-point vibrational energy     773650.4 (Joules/Mol)
                                  184.90688 (Kcal/Mol)
 Warning -- explicit consideration of  27 degrees of freedom as
           vibrations may cause significant error
 Vibrational temperatures:     68.25    85.55   100.48   114.62   127.36
          (Kelvin)            155.70   184.91   209.42   228.91   260.79
                              262.33   282.18   292.58   341.52   393.31
                              402.01   435.61   466.83   515.46   550.55
                              572.03   605.13   710.55   751.20   803.40
                              860.20   889.95  1065.66  1130.30  1238.23
                             1314.24  1379.57  1381.65  1418.89  1438.40
                             1478.02  1506.69  1562.40  1614.28  1625.10
                             1636.01  1658.54  1668.90  1683.20  1701.73
                             1705.96  1711.77  1712.18  1753.96  1766.61
                             1767.39  1776.46  1794.83  1819.79  1876.13
                             1915.53  1927.28  1937.81  1964.95  2000.41
                             2024.14  2053.79  2081.84  2157.19  2157.92
                             2160.06  2161.83  2171.74  2176.22  2177.85
                             2181.52  2191.22  2195.48  2198.75  2201.52
                             2230.95  2360.75  4283.07  4345.70  4352.23
                             4358.51  4374.51  4384.49  4406.13  4425.27
                             4435.63  4448.82  4452.34  4466.61  4487.26
                             4547.48  4552.00  4561.12  4563.12  4577.08
                             4589.72

 Zero-point correction=                           0.294668 (Hartree/Particle)
 Thermal correction to Energy=                    0.311855
 Thermal correction to Enthalpy=                  0.312799
 Thermal correction to Gibbs Free Energy=         0.249810
 Sum of electronic and zero-point Energies=           -768.033411
 Sum of electronic and thermal Energies=              -768.016223
 Sum of electronic and thermal Enthalpies=            -768.015279
 Sum of electronic and thermal Free Energies=         -768.078268

                     E (Thermal)             CV                S
                      KCal/Mol        Cal/Mol-Kelvin    Cal/Mol-Kelvin
 Total                  195.692             61.457            132.572
 Electronic               0.000              0.000              0.000
 Translational            0.889              2.981             42.056
 Rotational               0.889              2.981             32.148
 Vibrational            193.915             55.496             58.367
 Vibration     1          0.595              1.979              4.921
 Vibration     2          0.597              1.974              4.475
 Vibration     3          0.598              1.969              4.158
 Vibration     4          0.600              1.963              3.899
 Vibration     5          0.601              1.957              3.693
 Vibration     6          0.606              1.943              3.301
 Vibration     7          0.611              1.925              2.968
 Vibration     8          0.617              1.907              2.730
 Vibration     9          0.621              1.892              2.560
 Vibration    10          0.630              1.865              2.315
 Vibration    11          0.630              1.864              2.304
 Vibration    12          0.636              1.845              2.169
 Vibration    13          0.639              1.835              2.103
 Vibration    14          0.656              1.783              1.823
 Vibration    15          0.676              1.722              1.575
 Vibration    16          0.680              1.712              1.537
 Vibration    17          0.694              1.668              1.402
 Vibration    18          0.709              1.627              1.288
 Vibration    19          0.733              1.558              1.130
 Vibration    20          0.752              1.507              1.029
 Vibration    21          0.764              1.475              0.972
 Vibration    22          0.783              1.425              0.890
 Vibration    23          0.850              1.264              0.674
 Vibration    24          0.877              1.201              0.605
 Vibration    25          0.914              1.121              0.527
 Vibration    26          0.956              1.036              0.453
 Vibration    27          0.978              0.993              0.419

 Optimization completed.
    -- Stationary point found.
 Normal termination of Gaussian 16 at Fri May 24 08:54:10 2019.
