 Gaussian 16, Revision A.03,
 Gaussian 16:  ES64L-G16RevA.03 25-Dec-2016

 -------------------------------------------------------------------
 #p b3lyp 6-31g* opt freq=noraman scrf=(pcm,solvent=tetrahydrofuran)
 -------------------------------------------------------------------

 -----
 title
 -----
 Symbolic Z-matrix:
 Charge =  1 Multiplicity = 1

 SCF Done:  E(RB3LYP) =  -768.330982479     A.U. after   13 cycles
 Optimization completed.
    -- Stationary point found.
 Normal termination of Gaussian 16 at Fri May 24 08:35:08 2019.

 --------------------------------------------------------------------
 #P Geom=AllCheck Guess=TCheck SCRF=Check GenChk RB3LYP/6-31G(d) Freq
 --------------------------------------------------------------------

 Structure from the checkpoint file:  "/scratch/Gau-183494.chk"
 -----
 title
 -----
 Charge =  1 Multiplicity = 1

                         Standard orientation:
 ---------------------------------------------------------------------
 Center     Atomic      Atomic             Coordinates (Angstroms)
 Number     Number       Type             X           Y           Z
 ---------------------------------------------------------------------
      1          6           0        0.563542    0.399774    0.726626
      2          6           0        0.418873    0.935242   -0.745354
      3          6           0        0.209279   -0.124373   -1.771523
      4          6           0       -0.740019   -1.637206   -0.183329
      5          6           0        0.358153   -1.125455    0.748720
      6          1           0        0.501006    0.059832   -2.807112
      7          1           0       -0.569360    1.429884   -0.761457
      8          1           0        1.594199    0.602128    1.045434
      9          1           0       -0.664400   -2.722726   -0.237312
     10          1           0        0.100704   -1.434637    1.769662
     11          8           0       -0.362538   -1.229351   -1.583324
     12          8           0        1.349314    1.884165   -1.186097
     13          8           0       -0.342599    0.993454    1.614605
     14          8           0        1.542269   -1.750271    0.278665
     15          6           0       -2.195382   -1.237189    0.032013
     16          1           0       -2.431847   -1.409593    1.093431
     17          1           0       -2.836704   -1.900427   -0.566846
     18          8           0       -2.381863    0.105174   -0.345957
     19          6           0        2.712827    1.444424   -1.267568
     20          1           0        2.800396    0.494979   -1.811871
     21          1           0        3.243256    2.222059   -1.817946
     22          1           0        3.165905    1.332919   -0.276883
     23          6           0       -0.058445    2.357983    1.922563
     24          1           0       -0.786100    2.661186    2.676934
     25          1           0        0.957180    2.465389    2.327022
     26          1           0       -0.161741    3.005422    1.042131
     27          6           0        2.520785   -2.016211    1.286906
     28          1           0        3.360205   -2.492841    0.778504
     29          1           0        2.870535   -1.096736    1.772906
     30          1           0        2.117798   -2.695872    2.047883
     31          6           0       -3.713238    0.564256   -0.126957
     32          1           0       -3.751827    1.595360   -0.481637
     33          1           0       -4.435538   -0.043071   -0.688860
     34          1           0       -3.968597    0.533907    0.940299
 ---------------------------------------------------------------------

 SCF Done:  E(RB3LYP) =  -768.330982479     A.U. after    1 cycles

 The electronic state is 1-A.
 Alpha  occ. eigenvalues --  -19.32205 -19.20506 -19.19739 -19.19197 -19.18968
 Alpha  occ. eigenvalues --  -10.39102 -10.31844 -10.31136 -10.29614 -10.29434
 Alpha  occ. eigenvalues --  -10.28310 -10.26082 -10.25556 -10.25098 -10.25061
 Alpha  occ. eigenvalues --   -1.21136  -1.09254  -1.08148  -1.07436  -1.06940
 Alpha  occ. eigenvalues --   -0.87009  -0.84876  -0.77836  -0.74776  -0.74122
 Alpha  occ. eigenvalues --   -0.70931  -0.69631  -0.68091  -0.66669  -0.61344
 Alpha  occ. eigenvalues --   -0.58795  -0.58335  -0.56929  -0.53992  -0.53439
 Alpha  occ. eigenvalues --   -0.52876  -0.51988  -0.50550  -0.50349  -0.48995
 Alpha  occ. eigenvalues --   -0.48168  -0.47390  -0.46940  -0.46607  -0.45743
 Alpha  occ. eigenvalues --   -0.44310  -0.43159  -0.42739  -0.41641  -0.40296
 Alpha  occ. eigenvalues --   -0.39552  -0.36741  -0.36548  -0.35960  -0.35323
 Alpha  occ. eigenvalues --   -0.32588  -0.30528  -0.29639  -0.28326
 Alpha virt. eigenvalues --   -0.14408   0.00998   0.03855   0.04941   0.06643
 Alpha virt. eigenvalues --    0.06976   0.07809   0.09474   0.10046   0.10583
 Alpha virt. eigenvalues --    0.10898   0.11780   0.12183   0.12752   0.13160

 Mulliken charges:
               1
     1  C    0.157180
     2  C    0.019774
     3  C    0.276513
     4  C    0.050433
     5  C    0.041734
     6  H    0.274339
     7  H    0.280624
     8  H    0.179850
     9  H    0.240175
    10  H    0.201686
    11  O   -0.302881
    12  O   -0.474225
    13  O   -0.484087
    14  O   -0.492359
    15  C   -0.017332
    16  H    0.184602
    17  H    0.178620
    18  O   -0.486742
    19  C   -0.241317
    20  H    0.163059
    21  H    0.198250
    22  H    0.176943
    23  C   -0.226202
    24  H    0.183841
    25  H    0.161435
    26  H    0.164648
    27  C   -0.224448
    28  H    0.188037
    29  H    0.163370
    30  H    0.169832
    31  C   -0.211943
    32  H    0.180901
    33  H    0.161398
    34  H    0.164292
 Sum of Mulliken charges =   1.00000

 Dipole moment (field-independent basis, Debye):
    X=              0.1740    Y=             -1.8209    Z=             -0.9477  Tot=              2.0602
 Quadrupole moment (field-independent basis, Debye-Ang):
   XX=            -60.9571   YY=            -75.5840   ZZ=            -74.4943
   XY=              2.0230   XZ=              0.4049   YZ=             -1.2039

  Exact polarizability: 148.707   3.437 144.072  -4.159  -0.774 135.001
 Approx polarizability: 158.850   5.694 167.440  -6.135   0.241 159.622

                      1                      2                      3
                      A                      A                      A
 Frequencies --     30.4270                45.5371                67.1808
 Red. masses --      2.7510                 3.1186                 2.0606
 Frc consts  --      0.0015                 0.0038                 0.0055
 IR Inten    --      5.4097                 2.0851                 1.4351

                      4                      5                      6
                      A                      A                      A
 Frequencies --     79.0280                89.5146               106.8470
 Red. masses --      2.6732                 2.5375                 2.1609
 Frc consts  --      0.0098                 0.0120                 0.0145
 IR Inten    --      1.1529                 2.3215                 8.5753

                      7                      8                      9
                      A                      A                      A
 Frequencies --    124.6850               127.4030               144.9039
 Red. masses --      2.0060                 2.1399                 2.9336
 Frc consts  --      0.0184                 0.0205                 0.0363
 IR Inten    --      5.7968                 5.4153                 3.8147

                     10                     11                     12
                      A                      A                      A
 Frequencies --    172.7939               174.0902               187.8986
 Red. masses --      1.4882                 2.2443                 1.3101
 Frc consts  --      0.0262                 0.0401                 0.0273
 IR Inten    --      1.1676                 2.7107                 2.1520

                     13                     14                     15
                      A                      A                      A
 Frequencies --    227.5130               232.4631               253.2534
 Red. masses --      1.6588                 2.7908                 2.6550
 Frc consts  --      0.0506                 0.0889                 0.1003
 IR Inten    --      8.3313                 2.4253                 7.3344

                     16                     17                     18
                      A                      A                      A
 Frequencies --    276.5908               314.3673               330.4525
 Red. masses --      3.8420                 3.2551                 3.4466
 Frc consts  --      0.1732                 0.1895                 0.2217
 IR Inten    --      3.5777                 2.4386                 1.2902

                     19                     20                     21
                      A                      A                      A
 Frequencies --    353.3233               372.6184               401.1609
 Red. masses --      5.2966                 4.2137                 4.3350
 Frc consts  --      0.3896                 0.3447                 0.4110
 IR Inten    --      3.2407                12.3669                19.2573

                     22                     23                     24
                      A                      A                      A
 Frequencies --    426.3693               495.3483               516.0653
 Red. masses --      4.0761                 4.5098                 3.9904
 Frc consts  --      0.4366                 0.6520                 0.6262
 IR Inten    --     17.2951                 0.5578                31.4344

                     25                     26                     27
                      A                      A                      A
 Frequencies --    592.0009               609.7545               671.9297
 Red. masses --      3.9310                 5.0706                 5.1066
 Frc consts  --      0.8117                 1.1108                 1.3584
 IR Inten    --      3.9035                 5.4269                25.7186

                     28                     29                     30
                      A                      A                      A
 Frequencies --    740.9097               762.7805               855.9309
 Red. masses --      4.5812                 2.9412                 3.0308
 Frc consts  --      1.4817                 1.0083                 1.3083
 IR Inten    --     65.9196                 8.5607                 9.1585

                     31                     32                     33
                      A                      A                      A
 Frequencies --    911.9341               949.1093               960.5275
 Red. masses --      2.6434                 3.1912                 4.4233
 Frc consts  --      1.2952                 1.6937                 2.4045
 IR Inten    --      4.0542                15.9147                61.3882

                     34                     35                     36
                      A                      A                      A
 Frequencies --    989.6535               998.1990              1027.8307
 Red. masses --      2.1332                 3.6044                 2.6232
 Frc consts  --      1.2309                 2.1160                 1.6328
 IR Inten    --     16.8701                19.9580                33.8358

                     37                     38                     39
                      A                      A                      A
 Frequencies --   1053.3294              1066.8729              1088.6506
 Red. masses --      3.0226                 2.8840                 2.6669
 Frc consts  --      1.9759                 1.9341                 1.8623
 IR Inten    --     32.0412                79.5176                99.1637

                     40                     41                     42
                      A                      A                      A
 Frequencies --   1122.9455              1141.0465              1154.0078
 Red. masses --      4.4175                 2.0804                 2.9102
 Frc consts  --      3.2820                 1.5959                 2.2835
 IR Inten    --    188.9077                86.1850               301.7061

                     43                     44                     45
                      A                      A                      A
 Frequencies --   1164.1316              1172.2999              1185.8297
 Red. masses --      3.5785                 3.1143                 1.2922
 Frc consts  --      2.8573                 2.5217                 1.0706
 IR Inten    --     15.8897               115.3531                23.1676

                     46                     47                     48
                      A                      A                      A
 Frequencies --   1187.7336              1190.0612              1191.3725
 Red. masses --      1.3498                 1.2743                 1.2995
 Frc consts  --      1.1219                 1.0633                 1.0867
 IR Inten    --     12.1662                 7.7237                 3.5560

                     49                     50                     51
                      A                      A                      A
 Frequencies --   1219.2486              1225.4361              1231.0113
 Red. masses --      1.4170                 1.5410                 1.6671
 Frc consts  --      1.2411                 1.3634                 1.4884
 IR Inten    --     21.1361                53.4086                46.4149

                     52                     53                     54
                      A                      A                      A
 Frequencies --   1236.1232              1243.3944              1275.0908
 Red. masses --      1.7427                 1.5180                 1.2387
 Frc consts  --      1.5689                 1.3828                 1.1866
 IR Inten    --     42.4470                73.8580                18.3806

                     55                     56                     57
                      A                      A                      A
 Frequencies --   1304.4950              1317.6432              1325.7956
 Red. masses --      1.3310                 1.3727                 1.3029
 Frc consts  --      1.3345                 1.4042                 1.3493
 IR Inten    --     15.2971                 6.7334                28.6978

                     58                     59                     60
                      A                      A                      A
 Frequencies --   1345.7291              1372.9698              1391.4436
 Red. masses --      1.3685                 1.3000                 1.3960
 Frc consts  --      1.4602                 1.4439                 1.5924
 IR Inten    --      3.8218                17.9667                44.8695

                     61                     62                     63
                      A                      A                      A
 Frequencies --   1413.3891              1421.0832              1443.5334
 Red. masses --      1.3850                 1.5938                 1.2937
 Frc consts  --      1.6301                 1.8963                 1.5884
 IR Inten    --     49.0566                22.1830                18.1698

                     64                     65                     66
                      A                      A                      A
 Frequencies --   1497.5296              1499.3303              1501.8250
 Red. masses --      1.0773                 1.1253                 1.1396
 Frc consts  --      1.4234                 1.4904                 1.5145
 IR Inten    --      6.0826                 1.3966                 3.6260

                     67                     68                     69
                      A                      A                      A
 Frequencies --   1503.3880              1509.8252              1511.6700
 Red. masses --      1.1355                 1.0500                 1.0531
 Frc consts  --      1.5120                 1.4102                 1.4179
 IR Inten    --      2.1819                10.5785                10.9425

                     70                     71                     72
                      A                      A                      A
 Frequencies --   1514.0471              1517.4289              1523.4339
 Red. masses --      1.0581                 1.0966                 1.0590
 Frc consts  --      1.4291                 1.4878                 1.4481
 IR Inten    --      6.5904                 5.5762                13.6311

                     73                     74                     75
                      A                      A                      A
 Frequencies --   1524.8077              1528.4794              1533.0409
 Red. masses --      1.0694                 1.0625                 1.0524
 Frc consts  --      1.4649                 1.4625                 1.4573
 IR Inten    --     14.9625                15.3287                18.4860

                     76                     77                     78
                      A                      A                      A
 Frequencies --   1541.3335              1638.6185              2992.5393
 Red. masses --      1.0917                 5.8097                 1.0781
 Frc consts  --      1.5281                 9.1909                 5.6883
 IR Inten    --      4.1453               183.1708                31.4295

                     79                     80                     81
                      A                      A                      A
 Frequencies --   3014.4205              3029.0996              3029.7149
 Red. masses --      1.0548                 1.0350                 1.0358
 Frc consts  --      5.6470                 5.5954                 5.6019
 IR Inten    --     28.4322                75.0478                46.3531

                     82                     83                     84
                      A                      A                      A
 Frequencies --   3034.8836              3041.0753              3051.5215
 Red. masses --      1.0354                 1.0379                 1.1054
 Frc consts  --      5.6187                 5.6553                 6.0645
 IR Inten    --     40.4405                27.4215                54.3624

                     85                     86                     87
                      A                      A                      A
 Frequencies --   3055.0182              3071.4898              3088.3962
 Red. masses --      1.0825                 1.0859                 1.1069
 Frc consts  --      5.9526                 6.0359                 6.2204
 IR Inten    --     38.9247                17.2479                65.7976

                     88                     89                     90
                      A                      A                      A
 Frequencies --   3088.6846              3097.8602              3110.4065
 Red. masses --      1.1061                 1.1069                 1.1020
 Frc consts  --      6.2172                 6.2585                 6.2816
 IR Inten    --     29.6741                47.5013                52.6628

                     91                     92                     93
                      A                      A                      A
 Frequencies --   3165.5819              3166.8714              3168.3585
 Red. masses --      1.1005                 1.1005                 1.1014
 Frc consts  --      6.4975                 6.5027                 6.5140
 IR Inten    --     26.8372                22.7806                20.0568

                     94                     95                     96
                      A                      A                      A
 Frequencies --   3169.9658              3177.3775              3188.7384
 Red. masses --      1.0880                 1.1014                 1.0944
 Frc consts  --      6.4413                 6.5516                 6.5563
 IR Inten    --      0.5746                18.8314                 1.1016

 - Thermochemistry -
 -------------------
 Temperature   298.150 Kelvin.  Pressure   1.00000 Atm.
 Atom     1 has atomic number  6 and mass  12.00000

 Molecular mass:   219.12325 amu.
 Principal axes and moments of inertia in atomic units:
                           1         2         3
     Eigenvalues --  2594.305553497.959283997.92732
           X            0.99997  -0.00731   0.00331
           Y            0.00736   0.99989  -0.01325
           Z           -0.00322   0.01328   0.99991
 This molecule is an asymmetric top.
 Rotational symmetry number  1.
 Warning -- assumption of classical behavior for rotation
           may cause significant error
 Rotational temperatures (Kelvin)      0.03339     0.02476     0.02166
 Rotational constants (GHZ):           0.69565     0.51594     0.45142
 Zero-point vibrational energy     772738.7 (Joules/Mol)
                                  184.68898 (Kcal/Mol)
 Warning -- explicit consideration of  26 degrees of freedom as
           vibrations may cause significant error
 Vibrational temperatures:     43.78    65.52    96.66   113.70   128.79
          (Kelvin)            153.73   179.39   183.30   208.48   248.61
                              250.48   270.34   327.34   334.46   364.38
                              397.95   452.30   475.45   508.35   536.11
                              577.18   613.45   712.70   742.50   851.76
                              877.30   966.76  1066.00  1097.47  1231.49
                             1312.07  1365.56  1381.98  1423.89  1436.19
                             1478.82  1515.51  1534.99  1566.33  1615.67
                             1641.71  1660.36  1674.93  1686.68  1706.14
                             1708.88  1712.23  1714.12  1754.23  1763.13
                             1771.15  1778.51  1788.97  1834.57  1876.88
                             1895.79  1907.52  1936.20  1975.40  2001.98
                             2033.55  2044.62  2076.92  2154.61  2157.20
                             2160.79  2163.04  2172.30  2174.96  2178.38
                             2183.24  2191.88  2193.86  2199.14  2205.70
                             2217.64  2357.61  4305.60  4337.08  4358.20
                             4359.08  4366.52  4375.43  4390.46  4395.49
                             4419.19  4443.51  4443.93  4457.13  4475.18
                             4554.57  4556.42  4558.56  4560.87  4571.54
                             4587.88

 Zero-point correction=                           0.294321 (Hartree/Particle)
 Thermal correction to Energy=                    0.311637
 Thermal correction to Enthalpy=                  0.312582
 Thermal correction to Gibbs Free Energy=         0.248704
 Sum of electronic and zero-point Energies=           -768.036662
 Sum of electronic and thermal Energies=              -768.019345
 Sum of electronic and thermal Enthalpies=            -768.018401
 Sum of electronic and thermal Free Energies=         -768.082279

                     E (Thermal)             CV                S
                      KCal/Mol        Cal/Mol-Kelvin    Cal/Mol-Kelvin
 Total                  195.555             61.428            134.443
 Electronic               0.000              0.000              0.000
 Translational            0.889              2.981             42.056
 Rotational               0.889              2.981             31.962
 Vibrational            193.778             55.467             60.425
 Vibration     1          0.594              1.984              5.801
 Vibration     2          0.595              1.979              5.002
 Vibration     3          0.598              1.970              4.234
 Vibration     4          0.600              1.963              3.915
 Vibration     5          0.602              1.957              3.671
 Vibration     6          0.606              1.944              3.325
 Vibration     7          0.610              1.928              3.026
 Vibration     8          0.611              1.926              2.985
 Vibration     9          0.616              1.908              2.738
 Vibration    10          0.626              1.876              2.405
 Vibration    11          0.627              1.874              2.391
 Vibration    12          0.633              1.856              2.248
 Vibration    13          0.651              1.799              1.898
 Vibration    14          0.653              1.791              1.860
 Vibration    15          0.664              1.757              1.708
 Vibration    16          0.678              1.717              1.555
 Vibration    17          0.702              1.646              1.339
 Vibration    18          0.713              1.615              1.258
 Vibration    19          0.730              1.568              1.151
 Vibration    20          0.744              1.528              1.069
 Vibration    21          0.767              1.468              0.958
 Vibration    22          0.788              1.413              0.871
 Vibration    23          0.851              1.260              0.670
 Vibration    24          0.871              1.214              0.619
 Vibration    25          0.949              1.049              0.464
 Vibration    26          0.969              1.011              0.433

 Optimization completed.
    -- Stationary point found.
 Normal termination of Gaussian 16 at Fri May 24 08:55:38 2019.
