 Gaussian 16, Revision A.03,
 Gaussian 16:  ES64L-G16RevA.03 25-Dec-2016

 -------------------------------------------------------------------
 #p b3lyp 6-31g* opt freq=noraman scrf=(pcm,solvent=tetrahydrofuran)
 -------------------------------------------------------------------

 -----
 title
 -----
 Symbolic Z-matrix:
 Charge =  1 Multiplicity = 1

 SCF Done:  E(RB3LYP) =  -768.326307567     A.U. after   14 cycles
 Optimization completed.
    -- Stationary point found.
 Normal termination of Gaussian 16 at Fri May 24 08:34:46 2019.

 --------------------------------------------------------------------
 #P Geom=AllCheck Guess=TCheck SCRF=Check GenChk RB3LYP/6-31G(d) Freq
 --------------------------------------------------------------------

 Structure from the checkpoint file:  "/scratch/Gau-167784.chk"
 -----
 title
 -----
 Charge =  1 Multiplicity = 1

                         Standard orientation:
 ---------------------------------------------------------------------
 Center     Atomic      Atomic             Coordinates (Angstroms)
 Number     Number       Type             X           Y           Z
 ---------------------------------------------------------------------
      1          6           0        1.259683    0.370705    0.081385
      2          6           0        1.489283   -1.138945   -0.124082
      3          6           0        0.303241   -1.966611    0.237591
      4          6           0       -1.259619   -0.092114    0.224567
      5          6           0       -0.146959    0.738553   -0.445521
      6          1           0        0.429258   -3.034080    0.425501
      7          1           0        1.615742   -1.297454   -1.212224
      8          1           0        1.354700    0.584867    1.154635
      9          1           0       -1.418787    0.187997    1.267350
     10          1           0       -0.148371    0.527665   -1.521474
     11          8           0       -0.872004   -1.547576    0.366860
     12          8           0        2.574271   -1.635062    0.610084
     13          8           0        2.272493    1.005690   -0.659195
     14          8           0       -0.446424    2.117571   -0.366829
     15          6           0       -2.580382   -0.088220   -0.518490
     16          1           0       -2.474205   -0.620067   -1.478097
     17          1           0       -2.818200    0.962810   -0.746389
     18          8           0       -3.548545   -0.683518    0.307881
     19          6           0        3.739767   -1.958968   -0.166674
     20          1           0        4.504460   -2.252641    0.553312
     21          1           0        3.539197   -2.794537   -0.847712
     22          1           0        4.074554   -1.084433   -0.732755
     23          6           0        2.744549    2.253343   -0.143423
     24          1           0        3.044545    2.155061    0.908007
     25          1           0        3.619306    2.513941   -0.742099
     26          1           0        1.989657    3.038882   -0.242836
     27          6           0       -0.636076    2.702056    0.929370
     28          1           0       -1.614334    2.444636    1.351703
     29          1           0        0.150762    2.421220    1.637548
     30          1           0       -0.597573    3.780626    0.770226
     31          6           0       -4.838361   -0.718019   -0.292584
     32          1           0       -4.830626   -1.304518   -1.222128
     33          1           0       -5.506939   -1.192744    0.427929
     34          1           0       -5.202226    0.295254   -0.513738
 ---------------------------------------------------------------------

 SCF Done:  E(RB3LYP) =  -768.326307567     A.U. after    1 cycles

 The electronic state is 1-A.
 Alpha  occ. eigenvalues --  -19.33155 -19.20801 -19.19925 -19.19123 -19.18248
 Alpha  occ. eigenvalues --  -10.39782 -10.32239 -10.31848 -10.29852 -10.29507
 Alpha  occ. eigenvalues --  -10.27846 -10.25717 -10.25693 -10.24880 -10.24592
 Alpha  occ. eigenvalues --   -1.21786  -1.09637  -1.08234  -1.06712  -1.06403
 Alpha  occ. eigenvalues --   -0.87415  -0.86080  -0.77603  -0.75344  -0.73449
 Alpha  occ. eigenvalues --   -0.71503  -0.68661  -0.68444  -0.65511  -0.62765
 Alpha  occ. eigenvalues --   -0.60528  -0.58879  -0.55719  -0.55011  -0.53607
 Alpha  occ. eigenvalues --   -0.52386  -0.51613  -0.51111  -0.50091  -0.49336
 Alpha  occ. eigenvalues --   -0.48619  -0.47910  -0.46227  -0.45783  -0.45611
 Alpha  occ. eigenvalues --   -0.44336  -0.42540  -0.42311  -0.41883  -0.41017
 Alpha  occ. eigenvalues --   -0.40060  -0.37082  -0.36039  -0.35372  -0.35072
 Alpha  occ. eigenvalues --   -0.32035  -0.31447  -0.28925  -0.28123
 Alpha virt. eigenvalues --   -0.15267  -0.00318   0.04821   0.05008   0.06721
 Alpha virt. eigenvalues --    0.06940   0.07838   0.08538   0.09165   0.10189
 Alpha virt. eigenvalues --    0.11426   0.11770   0.11868   0.12171   0.13062

 Mulliken charges:
               1
     1  C    0.118077
     2  C    0.036773
     3  C    0.304991
     4  C    0.042284
     5  C    0.095915
     6  H    0.280253
     7  H    0.242983
     8  H    0.178883
     9  H    0.237853
    10  H    0.191818
    11  O   -0.307828
    12  O   -0.477538
    13  O   -0.487181
    14  O   -0.479830
    15  C   -0.019477
    16  H    0.169330
    17  H    0.185641
    18  O   -0.482095
    19  C   -0.231731
    20  H    0.191243
    21  H    0.171126
    22  H    0.182981
    23  C   -0.226286
    24  H    0.161924
    25  H    0.182045
    26  H    0.173017
    27  C   -0.247685
    28  H    0.172619
    29  H    0.166971
    30  H    0.195261
    31  C   -0.212330
    32  H    0.155013
    33  H    0.178798
    34  H    0.156182
 Sum of Mulliken charges =   1.00000

 Dipole moment (field-independent basis, Debye):
    X=              0.6719    Y=             -3.0557    Z=             -0.0637  Tot=              3.1294
 Quadrupole moment (field-independent basis, Debye-Ang):
   XX=            -59.5987   YY=            -66.9680   ZZ=            -85.1700
   XY=             -4.3393   XZ=              2.2594   YZ=              7.9977

  Exact polarizability: 174.617  -3.679 150.074  -3.038   2.179 113.211
 Approx polarizability: 180.143  -3.052 165.308  -4.846  -1.471 144.797

                      1                      2                      3
                      A                      A                      A
 Frequencies --     34.1126                43.0881                55.4266
 Red. masses --      2.7486                 3.6444                 3.5594
 Frc consts  --      0.0019                 0.0040                 0.0064
 IR Inten    --      3.6658                 1.3430                 0.4929

                      4                      5                      6
                      A                      A                      A
 Frequencies --     65.1831                83.0940                88.3389
 Red. masses --      3.2827                 2.2837                 2.2228
 Frc consts  --      0.0082                 0.0093                 0.0102
 IR Inten    --      0.9002                 4.1663                13.3796

                      7                      8                      9
                      A                      A                      A
 Frequencies --    134.6921               144.9248               160.1416
 Red. masses --      2.4609                 2.8345                 1.4628
 Frc consts  --      0.0263                 0.0351                 0.0221
 IR Inten    --      4.6445                 7.3403                 0.6616

                     10                     11                     12
                      A                      A                      A
 Frequencies --    184.2741               187.6516               199.2683
 Red. masses --      1.3164                 1.3648                 2.0370
 Frc consts  --      0.0263                 0.0283                 0.0477
 IR Inten    --      2.7653                 0.7254                 0.7867

                     13                     14                     15
                      A                      A                      A
 Frequencies --    205.4477               237.1315               256.9998
 Red. masses --      1.7676                 1.7682                 4.1062
 Frc consts  --      0.0440                 0.0586                 0.1598
 IR Inten    --      7.9839                 6.3962                 4.0364

                     16                     17                     18
                      A                      A                      A
 Frequencies --    275.1105               282.1233               296.2152
 Red. masses --      4.8002                 4.0072                 3.8795
 Frc consts  --      0.2141                 0.1879                 0.2006
 IR Inten    --      7.0308                 6.4383                12.3467

                     19                     20                     21
                      A                      A                      A
 Frequencies --    335.3574               368.3011               390.7877
 Red. masses --      4.0790                 3.7846                 3.9473
 Frc consts  --      0.2703                 0.3025                 0.3552
 IR Inten    --      4.9460                 1.7121                 1.1704

                     22                     23                     24
                      A                      A                      A
 Frequencies --    444.7985               483.7830               497.7948
 Red. masses --      4.4602                 3.6991                 4.0502
 Frc consts  --      0.5199                 0.5101                 0.5913
 IR Inten    --      7.5311                14.6339                13.6827

                     25                     26                     27
                      A                      A                      A
 Frequencies --    544.8992               579.2588               600.0768
 Red. masses --      3.3685                 3.8793                 3.2877
 Frc consts  --      0.5893                 0.7669                 0.6975
 IR Inten    --      9.6049                22.8964                14.1015

                     28                     29                     30
                      A                      A                      A
 Frequencies --    731.0957               741.3883               857.2345
 Red. masses --      3.7315                 3.6572                 1.8165
 Frc consts  --      1.1751                 1.1844                 0.7865
 IR Inten    --     35.0364                81.3909                 7.7875

                     31                     32                     33
                      A                      A                      A
 Frequencies --    914.9249               968.5336               974.1589
 Red. masses --      4.3660                 4.1460                 4.8955
 Frc consts  --      2.1533                 2.2915                 2.7372
 IR Inten    --     74.4573                20.3409                19.5838

                     34                     35                     36
                      A                      A                      A
 Frequencies --    985.8862              1018.0691              1053.6097
 Red. masses --      4.0436                 2.7140                 2.3513
 Frc consts  --      2.3156                 1.6573                 1.5379
 IR Inten    --     40.2963                12.7074                38.3141

                     37                     38                     39
                      A                      A                      A
 Frequencies --   1069.2048              1098.5672              1110.6034
 Red. masses --      3.9517                 3.7147                 2.9237
 Frc consts  --      2.6617                 2.6414                 2.1247
 IR Inten    --     80.6211                 5.3504                91.2671

                     40                     41                     42
                      A                      A                      A
 Frequencies --   1141.7682              1152.4173              1155.3346
 Red. masses --      2.5213                 3.0088                 3.8219
 Frc consts  --      1.9365                 2.3543                 3.0057
 IR Inten    --     21.6289               160.5057                52.2444

                     43                     44                     45
                      A                      A                      A
 Frequencies --   1163.8723              1172.6724              1178.0394
 Red. masses --      3.8871                 2.5588                 1.2722
 Frc consts  --      3.1023                 2.0732                 1.0403
 IR Inten    --    325.4299               129.8501                 4.9957

                     46                     47                     48
                      A                      A                      A
 Frequencies --   1181.2972              1184.4122              1189.9960
 Red. masses --      1.2788                 1.4748                 1.3081
 Frc consts  --      1.0514                 1.2189                 1.0914
 IR Inten    --     10.9134                 8.5956                 5.0138

                     49                     50                     51
                      A                      A                      A
 Frequencies --   1219.1687              1225.5817              1229.7299
 Red. masses --      1.5253                 1.5399                 1.6690
 Frc consts  --      1.3358                 1.3627                 1.4870
 IR Inten    --     59.6107                39.0148                47.6264

                     52                     53                     54
                      A                      A                      A
 Frequencies --   1237.7897              1253.7923              1275.0530
 Red. masses --      1.7265                 1.5597                 1.2774
 Frc consts  --      1.5585                 1.4446                 1.2236
 IR Inten    --      9.8657                11.4168                10.8750

                     55                     56                     57
                      A                      A                      A
 Frequencies --   1295.6885              1337.3231              1358.2229
 Red. masses --      1.3144                 1.3488                 1.2203
 Frc consts  --      1.3001                 1.4212                 1.3263
 IR Inten    --     41.1658                24.0579                69.2441

                     58                     59                     60
                      A                      A                      A
 Frequencies --   1368.9000              1387.9555              1410.9224
 Red. masses --      1.2303                 1.2856                 1.3695
 Frc consts  --      1.3583                 1.4592                 1.6062
 IR Inten    --      7.7032                10.5899                30.9223

                     61                     62                     63
                      A                      A                      A
 Frequencies --   1423.4320              1448.2474              1450.0160
 Red. masses --      1.2948                 1.4470                 1.1882
 Frc consts  --      1.5457                 1.7881                 1.4720
 IR Inten    --      6.0187                44.1753                22.7453

                     64                     65                     66
                      A                      A                      A
 Frequencies --   1493.5405              1498.7780              1499.1930
 Red. masses --      1.1402                 1.1526                 1.1596
 Frc consts  --      1.4986                 1.5255                 1.5356
 IR Inten    --      1.6482                 4.1783                 0.9988

                     67                     68                     69
                      A                      A                      A
 Frequencies --   1505.8040              1508.5532              1510.3003
 Red. masses --      1.1264                 1.0463                 1.0654
 Frc consts  --      1.5048                 1.4029                 1.4318
 IR Inten    --      0.6861                 9.2200                 7.3468

                     70                     71                     72
                      A                      A                      A
 Frequencies --   1514.1195              1521.3004              1524.1087
 Red. masses --      1.0599                 1.0594                 1.0510
 Frc consts  --      1.4316                 1.4446                 1.4385
 IR Inten    --      5.7150                 8.4855                 8.3289

                     73                     74                     75
                      A                      A                      A
 Frequencies --   1524.3162              1528.4686              1534.0898
 Red. masses --      1.0524                 1.0487                 1.0501
 Frc consts  --      1.4408                 1.4434                 1.4561
 IR Inten    --     29.1785                18.8638                 6.3638

                     76                     77                     78
                      A                      A                      A
 Frequencies --   1540.9648              1648.7245              2968.0488
 Red. masses --      1.0978                 6.9319                 1.0776
 Frc consts  --      1.5358                11.1020                 5.5929
 IR Inten    --      4.4195               309.1192                22.4175

                     79                     80                     81
                      A                      A                      A
 Frequencies --   3003.6603              3019.2358              3040.0645
 Red. masses --      1.0539                 1.0374                 1.1036
 Frc consts  --      5.6019                 5.5715                 6.0093
 IR Inten    --     32.9135                65.5992                43.2332

                     82                     83                     84
                      A                      A                      A
 Frequencies --   3041.9650              3048.2073              3052.2319
 Red. masses --      1.0376                 1.0535                 1.0336
 Frc consts  --      5.6569                 5.7672                 5.6736
 IR Inten    --     53.7832                10.2833                47.7700

                     85                     86                     87
                      A                      A                      A
 Frequencies --   3057.5090              3072.7120              3083.0541
 Red. masses --      1.0638                 1.1068                 1.0850
 Frc consts  --      5.8591                 6.1570                 6.0763
 IR Inten    --     44.6951                59.3082                19.9069

                     88                     89                     90
                      A                      A                      A
 Frequencies --   3117.4362              3121.3108              3129.0844
 Red. masses --      1.1054                 1.0999                 1.1055
 Frc consts  --      6.3292                 6.3135                 6.3773
 IR Inten    --     52.8030                39.1802                24.7155

                     91                     92                     93
                      A                      A                      A
 Frequencies --   3152.2978              3159.3525              3163.7124
 Red. masses --      1.0853                 1.0994                 1.1043
 Frc consts  --      6.3542                 6.4653                 6.5123
 IR Inten    --      0.5441                28.9296                23.8304

                     94                     95                     96
                      A                      A                      A
 Frequencies --   3169.4033              3179.2026              3197.3804
 Red. masses --      1.1023                 1.1044                 1.0945
 Frc consts  --      6.5239                 6.5767                 6.5925
 IR Inten    --     17.5658                17.8782                 1.6785

 - Thermochemistry -
 -------------------
 Temperature   298.150 Kelvin.  Pressure   1.00000 Atm.
 Atom     1 has atomic number  6 and mass  12.00000

 Molecular mass:   219.12325 amu.
 Principal axes and moments of inertia in atomic units:
                           1         2         3
     Eigenvalues --  2079.047744764.671696434.30764
           X            0.99999  -0.00197   0.00314
           Y            0.00189   0.99962   0.02746
           Z           -0.00319  -0.02745   0.99962
 This molecule is an asymmetric top.
 Rotational symmetry number  1.
 Warning -- assumption of classical behavior for rotation
           may cause significant error
 Rotational temperatures (Kelvin)      0.04166     0.01818     0.01346
 Rotational constants (GHZ):           0.86806     0.37878     0.28049
 Zero-point vibrational energy     773214.2 (Joules/Mol)
                                  184.80263 (Kcal/Mol)
 Warning -- explicit consideration of  27 degrees of freedom as
           vibrations may cause significant error
 Vibrational temperatures:     49.08    61.99    79.75    93.78   119.55
          (Kelvin)            127.10   193.79   208.51   230.41   265.13
                              269.99   286.70   295.59   341.18   369.77
                              395.82   405.91   426.19   482.50   529.90
                              562.26   639.97   696.06   716.22   783.99
                              833.42   863.38  1051.88  1066.69  1233.37
                             1316.37  1393.50  1401.60  1418.47  1464.77
                             1515.91  1538.35  1580.59  1597.91  1642.75
                             1658.07  1662.27  1674.55  1687.21  1694.94
                             1699.62  1704.11  1712.14  1754.11  1763.34
                             1769.31  1780.90  1803.93  1834.52  1864.21
                             1924.11  1954.18  1969.54  1996.96  2030.00
                             2048.00  2083.70  2086.25  2148.87  2156.41
                             2157.00  2166.52  2170.47  2172.99  2178.48
                             2188.81  2192.85  2193.15  2199.13  2207.21
                             2217.10  2372.15  4270.36  4321.60  4344.01
                             4373.97  4376.71  4385.69  4391.48  4399.07
                             4420.95  4435.83  4485.30  4490.87  4502.05
                             4535.45  4545.60  4551.88  4560.06  4574.16
                             4600.32

 Zero-point correction=                           0.294502 (Hartree/Particle)
 Thermal correction to Energy=                    0.311994
 Thermal correction to Enthalpy=                  0.312938
 Thermal correction to Gibbs Free Energy=         0.248285
 Sum of electronic and zero-point Energies=           -768.031806
 Sum of electronic and thermal Energies=              -768.014314
 Sum of electronic and thermal Enthalpies=            -768.013370
 Sum of electronic and thermal Free Energies=         -768.078023

                     E (Thermal)             CV                S
                      KCal/Mol        Cal/Mol-Kelvin    Cal/Mol-Kelvin
 Total                  195.779             61.758            136.074
 Electronic               0.000              0.000              0.000
 Translational            0.889              2.981             42.056
 Rotational               0.889              2.981             32.522
 Vibrational            194.001             55.796             61.496
 Vibration     1          0.594              1.983              5.575
 Vibration     2          0.595              1.980              5.112
 Vibration     3          0.596              1.975              4.614
 Vibration     4          0.597              1.971              4.294
 Vibration     5          0.600              1.961              3.816
 Vibration     6          0.601              1.957              3.697
 Vibration     7          0.613              1.919              2.878
 Vibration     8          0.616              1.908              2.738
 Vibration     9          0.622              1.891              2.548
 Vibration    10          0.631              1.861              2.285
 Vibration    11          0.632              1.857              2.251
 Vibration    12          0.637              1.841              2.140
 Vibration    13          0.640              1.832              2.084
 Vibration    14          0.656              1.784              1.824
 Vibration    15          0.667              1.751              1.682
 Vibration    16          0.677              1.719              1.564
 Vibration    17          0.681              1.707              1.521
 Vibration    18          0.690              1.681              1.438
 Vibration    19          0.716              1.605              1.234
 Vibration    20          0.741              1.537              1.087
 Vibration    21          0.758              1.490              0.997
 Vibration    22          0.804              1.372              0.812
 Vibration    23          0.840              1.286              0.700
 Vibration    24          0.853              1.255              0.664
 Vibration    25          0.900              1.151              0.555
 Vibration    26          0.936              1.076              0.487
 Vibration    27          0.958              1.032              0.450

 Optimization completed.
    -- Stationary point found.
 Normal termination of Gaussian 16 at Fri May 24 08:53:14 2019.
