 Gaussian 16, Revision A.03,
 Gaussian 16:  ES64L-G16RevA.03 25-Dec-2016

 -------------------------------------------------------------------
 #p b3lyp 6-31g* opt freq=noraman scrf=(pcm,solvent=tetrahydrofuran)
 -------------------------------------------------------------------

 -----
 title
 -----
 Symbolic Z-matrix:
 Charge =  1 Multiplicity = 1

 SCF Done:  E(RB3LYP) =  -768.321810717     A.U. after   14 cycles
 Optimization completed.
    -- Stationary point found.
 Normal termination of Gaussian 16 at Fri May 24 08:34:40 2019.

 --------------------------------------------------------------------
 #P Geom=AllCheck Guess=TCheck SCRF=Check GenChk RB3LYP/6-31G(d) Freq
 --------------------------------------------------------------------

 Structure from the checkpoint file:  "/scratch/Gau-11911.chk"
 -----
 title
 -----
 Charge =  1 Multiplicity = 1

                         Standard orientation:
 ---------------------------------------------------------------------
 Center     Atomic      Atomic             Coordinates (Angstroms)
 Number     Number       Type             X           Y           Z
 ---------------------------------------------------------------------
      1          6           0       -1.622249   -0.376155    0.120243
      2          6           0       -1.504787    1.054692   -0.444122
      3          6           0       -0.592212    0.933337   -1.642939
      4          6           0        0.948359   -0.231568   -0.208786
      5          6           0       -0.230925   -1.019455    0.413175
      6          1           0       -0.812160    1.317499   -2.639699
      7          1           0       -2.488837    1.421008   -0.748700
      8          1           0       -2.218117   -0.347417    1.041562
      9          1           0        1.199578    0.644109    0.387112
     10          1           0       -0.251049   -2.002216   -0.068227
     11          8           0        0.524888    0.373651   -1.534527
     12          8           0       -0.876962    1.896431    0.498369
     13          8           0       -2.286620   -1.071380   -0.919460
     14          8           0        0.036510   -1.306739    1.768000
     15          6           0        2.164147   -1.086396   -0.533004
     16          1           0        1.908468   -1.782020   -1.339776
     17          1           0        2.391506   -1.677478    0.366222
     18          8           0        3.266472   -0.326390   -0.966190
     19          6           0       -1.217296    3.292756    0.403218
     20          1           0       -0.809081    3.749748   -0.504408
     21          1           0       -2.304305    3.423166    0.430663
     22          1           0       -0.766952    3.761658    1.278443
     23          6           0       -2.950554   -2.269192   -0.511337
     24          1           0       -2.246296   -3.018002   -0.127823
     25          1           0       -3.699717   -2.050608    0.260166
     26          1           0       -3.443693   -2.664218   -1.400693
     27          6           0        0.096923   -0.222569    2.702421
     28          1           0        1.003196    0.381449    2.573150
     29          1           0       -0.778589    0.430494    2.637579
     30          1           0        0.127132   -0.692274    3.686893
     31          6           0        4.072344    0.189327    0.090039
     32          1           0        4.896973    0.726769   -0.382062
     33          1           0        3.520363    0.887531    0.735518
     34          1           0        4.474775   -0.622439    0.711098
 ---------------------------------------------------------------------

 SCF Done:  E(RB3LYP) =  -768.321810717     A.U. after    1 cycles

 The electronic state is 1-A.
 Alpha  occ. eigenvalues --  -19.33001 -19.22155 -19.19759 -19.19427 -19.18171
 Alpha  occ. eigenvalues --  -10.39595 -10.31692 -10.31398 -10.29657 -10.29607
 Alpha  occ. eigenvalues --  -10.27458 -10.26609 -10.25478 -10.25174 -10.24723
 Alpha  occ. eigenvalues --   -1.21757  -1.10060  -1.08148  -1.07054  -1.06368
 Alpha  occ. eigenvalues --   -0.86668  -0.85459  -0.76813  -0.75186  -0.73986
 Alpha  occ. eigenvalues --   -0.71648  -0.69061  -0.68527  -0.65776  -0.61257
 Alpha  occ. eigenvalues --   -0.61152  -0.58481  -0.56917  -0.54481  -0.53399
 Alpha  occ. eigenvalues --   -0.52013  -0.51414  -0.50361  -0.50147  -0.49700
 Alpha  occ. eigenvalues --   -0.48691  -0.48221  -0.46805  -0.46044  -0.45727
 Alpha  occ. eigenvalues --   -0.44124  -0.43555  -0.42511  -0.41003  -0.40572
 Alpha  occ. eigenvalues --   -0.40533  -0.37453  -0.36816  -0.35008  -0.34569
 Alpha  occ. eigenvalues --   -0.32873  -0.31345  -0.29609  -0.28097
 Alpha virt. eigenvalues --   -0.15734   0.00636   0.04139   0.04958   0.05745
 Alpha virt. eigenvalues --    0.07528   0.08287   0.08516   0.09497   0.10346
 Alpha virt. eigenvalues --    0.10720   0.11829   0.12191   0.12428   0.12836

 Mulliken charges:
               1
     1  C    0.073638
     2  C    0.046554
     3  C    0.308806
     4  C    0.033915
     5  C    0.110121
     6  H    0.280981
     7  H    0.217319
     8  H    0.199016
     9  H    0.237543
    10  H    0.201730
    11  O   -0.291123
    12  O   -0.475151
    13  O   -0.497426
    14  O   -0.479235
    15  C   -0.051525
    16  H    0.191593
    17  H    0.186028
    18  O   -0.470710
    19  C   -0.229651
    20  H    0.177739
    21  H    0.181931
    22  H    0.199831
    23  C   -0.225155
    24  H    0.167219
    25  H    0.169103
    26  H    0.187987
    27  C   -0.236400
    28  H    0.161117
    29  H    0.169145
    30  H    0.186739
    31  C   -0.224972
    32  H    0.181606
    33  H    0.150380
    34  H    0.161309
 Sum of Mulliken charges =   1.00000

 Dipole moment (field-independent basis, Debye):
    X=             -3.3393    Y=              3.8576    Z=             -1.0930  Tot=              5.2179
 Quadrupole moment (field-independent basis, Debye-Ang):
   XX=            -69.1866   YY=            -67.4533   ZZ=            -77.9137
   XY=             -1.8044   XZ=              7.3769   YZ=             -1.2905

  Exact polarizability: 150.754  -0.275 141.761   6.892   0.605 136.510
 Approx polarizability: 162.442  -2.149 157.601   5.940  -0.504 164.714

                      1                      2                      3
                      A                      A                      A
 Frequencies --     36.7875                54.4715                67.7730
 Red. masses --      4.0641                 3.1719                 3.0635
 Frc consts  --      0.0032                 0.0055                 0.0083
 IR Inten    --      1.2603                 0.2404                 3.5722

                      4                      5                      6
                      A                      A                      A
 Frequencies --     84.2715               100.0100               104.4938
 Red. masses --      2.1684                 2.3161                 2.2561
 Frc consts  --      0.0091                 0.0136                 0.0145
 IR Inten    --      8.5078                 1.3243                 3.4066

                      7                      8                      9
                      A                      A                      A
 Frequencies --    110.7364               130.2403               154.7900
 Red. masses --      2.0977                 2.3008                 1.4158
 Frc consts  --      0.0152                 0.0230                 0.0200
 IR Inten    --      1.3780                 6.8899                 2.0162

                     10                     11                     12
                      A                      A                      A
 Frequencies --    163.4003               174.4308               194.3771
 Red. masses --      1.8110                 1.4661                 1.5934
 Frc consts  --      0.0285                 0.0263                 0.0355
 IR Inten    --      0.4209                 0.5091                 6.0734

                     13                     14                     15
                      A                      A                      A
 Frequencies --    220.2411               226.4036               251.5522
 Red. masses --      2.0597                 2.8886                 4.2344
 Frc consts  --      0.0589                 0.0872                 0.1579
 IR Inten    --     10.4283                 7.7430                 9.8991

                     16                     17                     18
                      A                      A                      A
 Frequencies --    278.6358               293.3079               324.1772
 Red. masses --      3.9311                 4.0567                 3.4122
 Frc consts  --      0.1798                 0.2056                 0.2113
 IR Inten    --     10.9637                 7.8501                 9.2813

                     19                     20                     21
                      A                      A                      A
 Frequencies --    337.9023               389.2094               431.5293
 Red. masses --      3.2273                 4.0122                 4.1559
 Frc consts  --      0.2171                 0.3581                 0.4560
 IR Inten    --      2.7630                 6.0601                 9.7308

                     22                     23                     24
                      A                      A                      A
 Frequencies --    446.5925               477.1289               490.5767
 Red. masses --      2.6621                 3.7422                 4.1366
 Frc consts  --      0.3128                 0.5019                 0.5866
 IR Inten    --     12.0171                29.5673                11.7779

                     25                     26                     27
                      A                      A                      A
 Frequencies --    526.2528               572.8553               607.1754
 Red. masses --      3.8327                 4.6710                 3.6454
 Frc consts  --      0.6254                 0.9031                 0.7918
 IR Inten    --     15.2497                35.5564                 6.8650

                     28                     29                     30
                      A                      A                      A
 Frequencies --    717.9965               853.8973               876.9336
 Red. masses --      3.8532                 4.4856                 2.8460
 Frc consts  --      1.1703                 1.9270                 1.2895
 IR Inten    --     38.3404                20.2390                40.1958

                     31                     32                     33
                      A                      A                      A
 Frequencies --    925.3116               932.2040               941.1032
 Red. masses --      3.7429                 3.9979                 3.8743
 Frc consts  --      1.8882                 2.0469                 2.0217
 IR Inten    --     28.5316                92.9474                23.1746

                     34                     35                     36
                      A                      A                      A
 Frequencies --    954.2557               991.6766              1015.1832
 Red. masses --      4.0525                 2.9526                 2.6520
 Frc consts  --      2.1742                 1.7108                 1.6103
 IR Inten    --     11.5723                37.6436                 6.4516

                     37                     38                     39
                      A                      A                      A
 Frequencies --   1044.9107              1064.8031              1106.3488
 Red. masses --      2.8079                 2.3836                 4.3775
 Frc consts  --      1.8063                 1.5923                 3.1569
 IR Inten    --     35.1386                 4.7682                53.1748

                     40                     41                     42
                      A                      A                      A
 Frequencies --   1113.0861              1127.0006              1142.7561
 Red. masses --      2.4711                 3.7393                 4.0926
 Frc consts  --      1.8039                 2.7983                 3.1489
 IR Inten    --      7.5407               121.4533               389.0098

                     43                     44                     45
                      A                      A                      A
 Frequencies --   1148.4609              1159.8425              1187.1917
 Red. masses --      3.3060                 4.0696                 1.2901
 Frc consts  --      2.5691                 3.2255                 1.0714
 IR Inten    --     36.0591               129.6073                 2.0857

                     46                     47                     48
                      A                      A                      A
 Frequencies --   1189.5972              1190.4544              1190.9145
 Red. masses --      1.2839                 1.2829                 1.2801
 Frc consts  --      1.0705                 1.0712                 1.0697
 IR Inten    --      3.4246                12.5444                 3.9497

                     49                     50                     51
                      A                      A                      A
 Frequencies --   1218.7457              1221.0066              1229.4601
 Red. masses --      1.4897                 1.4758                 1.6289
 Frc consts  --      1.3037                 1.2963                 1.4506
 IR Inten    --     39.0706                 6.9491                29.3112

                     52                     53                     54
                      A                      A                      A
 Frequencies --   1234.0943              1266.6665              1286.6498
 Red. masses --      1.6300                 1.5623                 1.4876
 Frc consts  --      1.4626                 1.4768                 1.4510
 IR Inten    --     68.5199                 6.4096                12.8428

                     55                     56                     57
                      A                      A                      A
 Frequencies --   1324.3889              1333.8006              1348.1437
 Red. masses --      1.2480                 1.2456                 1.1464
 Frc consts  --      1.2897                 1.3056                 1.2277
 IR Inten    --     15.4051                10.6555                23.3223

                     58                     59                     60
                      A                      A                      A
 Frequencies --   1361.2227              1369.0549              1399.8980
 Red. masses --      1.2411                 1.2856                 1.3421
 Frc consts  --      1.3549                 1.4198                 1.5496
 IR Inten    --     11.9392                 5.7222                 7.9765

                     61                     62                     63
                      A                      A                      A
 Frequencies --   1409.5425              1425.1706              1434.3473
 Red. masses --      1.2655                 1.3644                 1.3409
 Frc consts  --      1.4814                 1.6328                 1.6254
 IR Inten    --     25.2574                16.8113                37.4378

                     64                     65                     66
                      A                      A                      A
 Frequencies --   1494.5068              1496.0308              1497.0936
 Red. masses --      1.0961                 1.0999                 1.1135
 Frc consts  --      1.4424                 1.4504                 1.4705
 IR Inten    --      1.5552                 3.4213                 3.8949

                     67                     68                     69
                      A                      A                      A
 Frequencies --   1503.1273              1509.1400              1516.2708
 Red. masses --      1.0894                 1.0931                 1.0642
 Frc consts  --      1.4503                 1.4667                 1.4415
 IR Inten    --      2.0158                13.1060                 9.0567

                     70                     71                     72
                      A                      A                      A
 Frequencies --   1516.6052              1521.2638              1523.5688
 Red. masses --      1.0588                 1.0492                 1.0879
 Frc consts  --      1.4348                 1.4306                 1.4878
 IR Inten    --      1.5393                 9.7211                16.1872

                     73                     74                     75
                      A                      A                      A
 Frequencies --   1525.0180              1526.1644              1531.0010
 Red. masses --      1.0813                 1.0672                 1.0746
 Frc consts  --      1.4817                 1.4646                 1.4840
 IR Inten    --     29.1607                 4.7866                 6.0399

                     76                     77                     78
                      A                      A                      A
 Frequencies --   1531.7082              1649.4207              3017.1943
 Red. masses --      1.0546                 6.5827                 1.0371
 Frc consts  --      1.4578                10.5516                 5.5625
 IR Inten    --     22.6913               151.7454                50.6312

                     79                     80                     81
                      A                      A                      A
 Frequencies --   3037.1310              3037.4107              3050.7081
 Red. masses --      1.0396                 1.0573                 1.0363
 Frc consts  --      5.6501                 5.7472                 5.6822
 IR Inten    --     19.7732                54.0228                43.9571

                     82                     83                     84
                      A                      A                      A
 Frequencies --   3055.4981              3067.4824              3073.7418
 Red. masses --      1.0321                 1.0855                 1.1046
 Frc consts  --      5.6774                 6.0181                 6.1485
 IR Inten    --     54.9419                17.3973                73.4957

                     85                     86                     87
                      A                      A                      A
 Frequencies --   3096.8710              3099.1125              3108.0899
 Red. masses --      1.0859                 1.1058                 1.1007
 Frc consts  --      6.1363                 6.2573                 6.2649
 IR Inten    --     16.6088                42.0774                13.3505

                     88                     89                     90
                      A                      A                      A
 Frequencies --   3114.0803              3121.8109              3128.0838
 Red. masses --      1.0884                 1.1006                 1.1090
 Frc consts  --      6.2186                 6.3196                 6.3932
 IR Inten    --      9.7521                42.4313                30.9680

                     91                     92                     93
                      A                      A                      A
 Frequencies --   3158.4941              3167.5398              3169.9488
 Red. masses --      1.0992                 1.1040                 1.1013
 Frc consts  --      6.4605                 6.5262                 6.5201
 IR Inten    --     29.3299                22.1790                22.1082

                     94                     95                     96
                      A                      A                      A
 Frequencies --   3177.1433              3182.0272              3202.4244
 Red. masses --      1.0861                 1.1034                 1.0950
 Frc consts  --      6.4595                 6.5826                 6.6164
 IR Inten    --      1.9792                10.8795                 1.4089

 - Thermochemistry -
 -------------------
 Temperature   298.150 Kelvin.  Pressure   1.00000 Atm.
 Atom     1 has atomic number  6 and mass  12.00000

 Molecular mass:   219.12325 amu.
 Principal axes and moments of inertia in atomic units:
                           1         2         3
     Eigenvalues --  2598.124454066.401944544.44081
           X            0.99986   0.00803   0.01471
           Y           -0.00855   0.99932   0.03587
           Z           -0.01442  -0.03599   0.99925
 This molecule is an asymmetric top.
 Rotational symmetry number  1.
 Warning -- assumption of classical behavior for rotation
           may cause significant error
 Rotational temperatures (Kelvin)      0.03334     0.02130     0.01906
 Rotational constants (GHZ):           0.69463     0.44382     0.39713
 Zero-point vibrational energy     773931.0 (Joules/Mol)
                                  184.97394 (Kcal/Mol)
 Warning -- explicit consideration of  27 degrees of freedom as
           vibrations may cause significant error
 Vibrational temperatures:     52.93    78.37    97.51   121.25   143.89
          (Kelvin)            150.34   159.32   187.39   222.71   235.10
                              250.97   279.67   316.88   325.74   361.93
                              400.89   422.00   466.42   486.17   559.99
                              620.87   642.55   686.48   705.83   757.16
                              824.21   873.59  1033.04  1228.57  1261.71
                             1331.32  1341.23  1354.04  1372.96  1426.80
                             1460.62  1503.39  1532.01  1591.79  1601.48
                             1621.50  1644.17  1652.38  1668.75  1708.10
                             1711.56  1712.80  1713.46  1753.50  1756.76
                             1768.92  1775.59  1822.45  1851.20  1905.50
                             1919.04  1939.68  1958.50  1969.76  2014.14
                             2028.02  2050.50  2063.71  2150.26  2152.45
                             2153.98  2162.66  2171.32  2181.58  2182.06
                             2188.76  2192.08  2194.16  2195.81  2202.77
                             2203.79  2373.15  4341.07  4369.75  4370.16
                             4389.29  4396.18  4413.42  4422.43  4455.71
                             4458.93  4471.85  4480.47  4491.59  4500.61
                             4544.37  4557.38  4560.85  4571.20  4578.23
                             4607.57

 Zero-point correction=                           0.294775 (Hartree/Particle)
 Thermal correction to Energy=                    0.312163
 Thermal correction to Enthalpy=                  0.313108
 Thermal correction to Gibbs Free Energy=         0.249326
 Sum of electronic and zero-point Energies=           -768.027036
 Sum of electronic and thermal Energies=              -768.009647
 Sum of electronic and thermal Enthalpies=            -768.008703
 Sum of electronic and thermal Free Energies=         -768.072484

                     E (Thermal)             CV                S
                      KCal/Mol        Cal/Mol-Kelvin    Cal/Mol-Kelvin
 Total                  195.886             61.774            134.239
 Electronic               0.000              0.000              0.000
 Translational            0.889              2.981             42.056
 Rotational               0.889              2.981             32.240
 Vibrational            194.108             55.813             59.942
 Vibration     1          0.594              1.982              5.425
 Vibration     2          0.596              1.976              4.648
 Vibration     3          0.598              1.970              4.217
 Vibration     4          0.601              1.960              3.789
 Vibration     5          0.604              1.949              3.454
 Vibration     6          0.605              1.946              3.369
 Vibration     7          0.607              1.941              3.256
 Vibration     8          0.612              1.923              2.942
 Vibration     9          0.620              1.897              2.613
 Vibration    10          0.623              1.887              2.510
 Vibration    11          0.627              1.874              2.387
 Vibration    12          0.635              1.848              2.186
 Vibration    13          0.647              1.810              1.957
 Vibration    14          0.650              1.801              1.907
 Vibration    15          0.664              1.760              1.720
 Vibration    16          0.679              1.713              1.542
 Vibration    17          0.688              1.686              1.455
 Vibration    18          0.709              1.627              1.289
 Vibration    19          0.718              1.600              1.222
 Vibration    20          0.757              1.493              1.003
 Vibration    21          0.793              1.402              0.854
 Vibration    22          0.806              1.368              0.806
 Vibration    23          0.834              1.301              0.718
 Vibration    24          0.846              1.271              0.682
 Vibration    25          0.881              1.192              0.596
 Vibration    26          0.929              1.090              0.499
 Vibration    27          0.966              1.017              0.437

 Optimization completed.
    -- Stationary point found.
 Normal termination of Gaussian 16 at Fri May 24 08:54:08 2019.
