 Gaussian 16, Revision A.03,
 Gaussian 16:  ES64L-G16RevA.03 25-Dec-2016

 -------------------------------------------------------------------
 #p b3lyp 6-31g* opt freq=noraman scrf=(pcm,solvent=tetrahydrofuran)
 -------------------------------------------------------------------

 -----
 title
 -----
 Symbolic Z-matrix:
 Charge =  1 Multiplicity = 1

 SCF Done:  E(RB3LYP) =  -768.330329104     A.U. after   14 cycles
 Optimization completed.
    -- Stationary point found.
 Normal termination of Gaussian 16 at Fri May 24 08:32:59 2019.

 --------------------------------------------------------------------
 #P Geom=AllCheck Guess=TCheck SCRF=Check GenChk RB3LYP/6-31G(d) Freq
 --------------------------------------------------------------------

 Structure from the checkpoint file:  "/scratch/Gau-63567.chk"
 -----
 title
 -----
 Charge =  1 Multiplicity = 1

                         Standard orientation:
 ---------------------------------------------------------------------
 Center     Atomic      Atomic             Coordinates (Angstroms)
 Number     Number       Type             X           Y           Z
 ---------------------------------------------------------------------
      1          6           0        1.093014    0.128880    0.018101
      2          6           0        0.473039   -1.226437    0.452726
      3          6           0       -0.444505   -0.981664    1.594445
      4          6           0       -1.279576    1.062451    0.613725
      5          6           0       -0.027772    1.144663   -0.305870
      6          1           0       -0.479213   -1.677041    2.434815
      7          1           0       -0.150547   -1.595782   -0.380060
      8          1           0        1.719594    0.479339    0.849108
      9          1           0       -1.423449    1.986565    1.170604
     10          1           0       -0.359146    0.890356   -1.315599
     11          8           0       -1.155226    0.045639    1.725740
     12          8           0        1.436863   -2.146357    0.873344
     13          8           0        1.874054   -0.142011   -1.117075
     14          8           0        0.411706    2.486392   -0.410838
     15          6           0       -2.559906    0.683945   -0.110861
     16          1           0       -2.763264    1.476814   -0.847329
     17          1           0       -3.401535    0.648430    0.595651
     18          8           0       -2.345681   -0.567952   -0.721673
     19          6           0        1.724409   -3.193990   -0.064975
     20          1           0        2.509968   -3.796522    0.393022
     21          1           0        0.840033   -3.819283   -0.238278
     22          1           0        2.080065   -2.775606   -1.010769
     23          6           0        3.029010    0.687106   -1.278038
     24          1           0        3.674982    0.635484   -0.391859
     25          1           0        3.568630    0.289522   -2.139266
     26          1           0        2.748546    1.727708   -1.471766
     27          6           0        1.039862    3.075356    0.729824
     28          1           0        1.105210    4.142745    0.512848
     29          1           0        0.455740    2.940032    1.649597
     30          1           0        2.050957    2.684296    0.889612
     31          6           0       -3.486888   -1.056868   -1.426406
     32          1           0       -3.204339   -2.023200   -1.846691
     33          1           0       -4.340554   -1.186829   -0.748369
     34          1           0       -3.769535   -0.373375   -2.237287
 ---------------------------------------------------------------------

 SCF Done:  E(RB3LYP) =  -768.330329104     A.U. after    1 cycles

 The electronic state is 1-A.
 Alpha  occ. eigenvalues --  -19.32752 -19.20114 -19.19703 -19.19442 -19.19082
 Alpha  occ. eigenvalues --  -10.39344 -10.32149 -10.31278 -10.29595 -10.29352
 Alpha  occ. eigenvalues --  -10.28440 -10.25504 -10.25331 -10.25300 -10.24887
 Alpha  occ. eigenvalues --   -1.21528  -1.09311  -1.07937  -1.07605  -1.06316
 Alpha  occ. eigenvalues --   -0.87054  -0.85735  -0.77478  -0.75288  -0.73709
 Alpha  occ. eigenvalues --   -0.70961  -0.69185  -0.67976  -0.65853  -0.62206
 Alpha  occ. eigenvalues --   -0.59615  -0.58728  -0.56508  -0.54133  -0.53922
 Alpha  occ. eigenvalues --   -0.52315  -0.51521  -0.51308  -0.50609  -0.48882
 Alpha  occ. eigenvalues --   -0.48231  -0.47712  -0.46733  -0.45729  -0.45562
 Alpha  occ. eigenvalues --   -0.44235  -0.43183  -0.42409  -0.41391  -0.40601
 Alpha  occ. eigenvalues --   -0.40022  -0.37342  -0.36200  -0.35743  -0.34970
 Alpha  occ. eigenvalues --   -0.31909  -0.30899  -0.30066  -0.27918
 Alpha virt. eigenvalues --   -0.14912   0.00184   0.04713   0.05363   0.05996
 Alpha virt. eigenvalues --    0.06726   0.08335   0.09060   0.09795   0.10640
 Alpha virt. eigenvalues --    0.11034   0.11474   0.12330   0.12974   0.13239

 Mulliken charges:
               1
     1  C    0.107773
     2  C    0.034906
     3  C    0.297795
     4  C    0.022052
     5  C    0.112802
     6  H    0.278138
     7  H    0.247621
     8  H    0.176682
     9  H    0.242093
    10  H    0.208479
    11  O   -0.305010
    12  O   -0.484430
    13  O   -0.481756
    14  O   -0.481987
    15  C   -0.034898
    16  H    0.193595
    17  H    0.185193
    18  O   -0.490910
    19  C   -0.229154
    20  H    0.186861
    21  H    0.166743
    22  H    0.180852
    23  C   -0.228082
    24  H    0.163071
    25  H    0.183145
    26  H    0.171941
    27  C   -0.240982
    28  H    0.192396
    29  H    0.158931
    30  H    0.166490
    31  C   -0.213745
    32  H    0.183149
    33  H    0.163762
    34  H    0.166485
 Sum of Mulliken charges =   1.00000

 Dipole moment (field-independent basis, Debye):
    X=             -2.9692    Y=             -0.7337    Z=              3.2427  Tot=              4.4575
 Quadrupole moment (field-independent basis, Debye-Ang):
   XX=            -62.1406   YY=            -68.7585   ZZ=            -79.1106
   XY=              1.8234   XZ=             -0.0259   YZ=              3.5514

  Exact polarizability: 153.478  -4.507 153.970  -5.970  -0.238 127.081
 Approx polarizability: 164.187  -8.260 169.612  -7.287  -0.634 156.753

                      1                      2                      3
                      A                      A                      A
 Frequencies --     36.8270                48.0590                63.6100
 Red. masses --      3.2831                 4.0193                 3.3347
 Frc consts  --      0.0026                 0.0055                 0.0079
 IR Inten    --      1.6473                 0.9827                 0.8278

                      4                      5                      6
                      A                      A                      A
 Frequencies --     86.0316                95.0389               105.4296
 Red. masses --      2.8780                 2.4798                 2.3421
 Frc consts  --      0.0126                 0.0132                 0.0153
 IR Inten    --      5.4109                11.5692                 4.5290

                      7                      8                      9
                      A                      A                      A
 Frequencies --    122.5409               150.0832               160.3345
 Red. masses --      3.4970                 2.0443                 1.3167
 Frc consts  --      0.0309                 0.0271                 0.0199
 IR Inten    --      5.4457                 1.1686                 1.3221

                     10                     11                     12
                      A                      A                      A
 Frequencies --    167.9740               193.8039               207.1737
 Red. masses --      1.8934                 1.1862                 1.5205
 Frc consts  --      0.0315                 0.0263                 0.0385
 IR Inten    --      3.1054                 1.0388                 1.5944

                     13                     14                     15
                      A                      A                      A
 Frequencies --    217.3998               243.2147               274.3373
 Red. masses --      1.5876                 3.2318                 3.7289
 Frc consts  --      0.0442                 0.1126                 0.1653
 IR Inten    --     10.2787                 0.4049                10.8387

                     16                     17                     18
                      A                      A                      A
 Frequencies --    278.5423               293.7090               302.1705
 Red. masses --      3.5087                 3.4991                 3.3395
 Frc consts  --      0.1604                 0.1778                 0.1797
 IR Inten    --      8.1335                16.0779                 0.5654

                     19                     20                     21
                      A                      A                      A
 Frequencies --    347.5281               386.6432               406.2093
 Red. masses --      3.6523                 4.4042                 4.2945
 Frc consts  --      0.2599                 0.3879                 0.4175
 IR Inten    --      1.8895                 0.4036                15.0156

                     22                     23                     24
                      A                      A                      A
 Frequencies --    457.0963               475.4013               487.5177
 Red. masses --      5.2316                 3.5180                 3.8999
 Frc consts  --      0.6440                 0.4685                 0.5461
 IR Inten    --      5.4333                 9.6421                19.3598

                     25                     26                     27
                      A                      A                      A
 Frequencies --    519.5385               604.5689               659.8361
 Red. masses --      3.7642                 3.0703                 4.7128
 Frc consts  --      0.5986                 0.6612                 1.2089
 IR Inten    --     23.7448                 7.9884                10.7905

                     28                     29                     30
                      A                      A                      A
 Frequencies --    717.0559               770.9341               869.0770
 Red. masses --      4.1433                 4.3249                 1.8717
 Frc consts  --      1.2552                 1.5145                 0.8329
 IR Inten    --     54.5257                60.0666                31.7577

                     31                     32                     33
                      A                      A                      A
 Frequencies --    900.5987               932.2153               974.9690
 Red. masses --      3.3872                 4.1488                 3.0023
 Frc consts  --      1.6187                 2.1243                 1.6815
 IR Inten    --     12.7046                28.1455                10.4465

                     34                     35                     36
                      A                      A                      A
 Frequencies --    991.0176              1015.8627              1037.1106
 Red. masses --      3.8649                 4.7093                 4.0275
 Frc consts  --      2.2364                 2.8634                 2.5523
 IR Inten    --     15.9310                 1.3171               142.9337

                     37                     38                     39
                      A                      A                      A
 Frequencies --   1072.3274              1079.2003              1088.6911
 Red. masses --      2.6831                 3.1610                 2.2556
 Frc consts  --      1.8178                 2.1691                 1.5751
 IR Inten    --     90.9656                39.9754                10.4848

                     40                     41                     42
                      A                      A                      A
 Frequencies --   1118.7179              1137.9283              1147.1434
 Red. masses --      3.3881                 3.6382                 3.5282
 Frc consts  --      2.4983                 2.7756                 2.7355
 IR Inten    --     26.0569               287.7586               140.2382

                     43                     44                     45
                      A                      A                      A
 Frequencies --   1158.6089              1173.9540              1179.4631
 Red. masses --      3.3280                 3.3292                 1.2605
 Frc consts  --      2.6321                 2.7033                 1.0332
 IR Inten    --     95.6093               230.8426                 1.9721

                     46                     47                     48
                      A                      A                      A
 Frequencies --   1183.9105              1188.1036              1191.0847
 Red. masses --      1.2601                 1.2879                 1.3133
 Frc consts  --      1.0407                 1.0711                 1.0977
 IR Inten    --      2.5669                 2.1244                 2.6949

                     49                     50                     51
                      A                      A                      A
 Frequencies --   1221.4409              1225.8669              1228.0708
 Red. masses --      1.6673                 1.5643                 1.6432
 Frc consts  --      1.4656                 1.3850                 1.4601
 IR Inten    --     43.9986                26.3218                37.0504

                     52                     53                     54
                      A                      A                      A
 Frequencies --   1229.4635              1242.8567              1272.9213
 Red. masses --      1.6340                 1.5757                 1.1007
 Frc consts  --      1.4552                 1.4341                 1.0508
 IR Inten    --     47.9082                20.5004                16.7575

                     55                     56                     57
                      A                      A                      A
 Frequencies --   1303.1605              1311.3735              1335.6718
 Red. masses --      1.3029                 1.2025                 1.3011
 Frc consts  --      1.3036                 1.2184                 1.3676
 IR Inten    --     17.3649                20.6997                 8.8942

                     58                     59                     60
                      A                      A                      A
 Frequencies --   1361.7239              1367.9411              1408.5025
 Red. masses --      1.3434                 1.3120                 1.3790
 Frc consts  --      1.4676                 1.4465                 1.6118
 IR Inten    --     19.6415                 6.8965                60.4271

                     61                     62                     63
                      A                      A                      A
 Frequencies --   1409.9447              1425.5056              1437.3153
 Red. masses --      1.3445                 1.3174                 1.2691
 Frc consts  --      1.5748                 1.5773                 1.5447
 IR Inten    --     27.8742                41.3327                 9.5683

                     64                     65                     66
                      A                      A                      A
 Frequencies --   1494.6956              1499.4595              1500.6564
 Red. masses --      1.1496                 1.1508                 1.1450
 Frc consts  --      1.5132                 1.5245                 1.5192
 IR Inten    --      0.2151                 3.9302                 1.1888

                     67                     68                     69
                      A                      A                      A
 Frequencies --   1502.0678              1510.6642              1511.6677
 Red. masses --      1.1177                 1.0465                 1.0562
 Frc consts  --      1.4858                 1.4071                 1.4221
 IR Inten    --      2.9436                10.5644                 7.7890

                     70                     71                     72
                      A                      A                      A
 Frequencies --   1512.8481              1519.8912              1521.8905
 Red. masses --      1.0576                 1.0585                 1.0600
 Frc consts  --      1.4261                 1.4406                 1.4465
 IR Inten    --      3.2496                14.3295                 8.3478

                     73                     74                     75
                      A                      A                      A
 Frequencies --   1527.9011              1533.0880              1537.8990
 Red. masses --      1.0517                 1.0487                 1.0566
 Frc consts  --      1.4466                 1.4522                 1.4724
 IR Inten    --     11.7416                22.1099                 6.4799

                     76                     77                     78
                      A                      A                      A
 Frequencies --   1540.2197              1650.9431              2998.4866
 Red. masses --      1.0932                 6.6551                 1.0789
 Frc consts  --      1.5280                10.6874                 5.7150
 IR Inten    --      6.8093               222.4273                26.2084

                     79                     80                     81
                      A                      A                      A
 Frequencies --   3020.3569              3033.3516              3036.8506
 Red. masses --      1.0547                 1.0361                 1.0375
 Frc consts  --      5.6686                 5.6167                 5.6372
 IR Inten    --     28.1875                69.3975                35.4143

                     82                     83                     84
                      A                      A                      A
 Frequencies --   3041.3339              3048.8747              3060.4689
 Red. masses --      1.0354                 1.0361                 1.0826
 Frc consts  --      5.6429                 5.6747                 5.9744
 IR Inten    --     53.9050                48.2662                25.4674

                     85                     86                     87
                      A                      A                      A
 Frequencies --   3062.3542              3093.5449              3101.6227
 Red. masses --      1.1065                 1.1075                 1.1027
 Frc consts  --      6.1141                 6.2444                 6.2502
 IR Inten    --     39.7992                43.7301                57.4236

                     88                     89                     90
                      A                      A                      A
 Frequencies --   3114.3362              3120.5591              3129.0433
 Red. masses --      1.1030                 1.0857                 1.1019
 Frc consts  --      6.3032                 6.2292                 6.3567
 IR Inten    --     39.2691                 5.5749                26.5271

                     91                     92                     93
                      A                      A                      A
 Frequencies --   3164.2089              3166.1528              3168.3143
 Red. masses --      1.1008                 1.1030                 1.1010
 Frc consts  --      6.4939                 6.5148                 6.5119
 IR Inten    --     22.9527                22.1459                20.9034

                     94                     95                     96
                      A                      A                      A
 Frequencies --   3176.3079              3179.5687              3201.3892
 Red. masses --      1.1048                 1.0881                 1.0948
 Frc consts  --      6.5673                 6.4814                 6.6109
 IR Inten    --     19.7501                 0.1759                 2.6561

 - Thermochemistry -
 -------------------
 Temperature   298.150 Kelvin.  Pressure   1.00000 Atm.
 Atom     1 has atomic number  6 and mass  12.00000

 Molecular mass:   219.12325 amu.
 Principal axes and moments of inertia in atomic units:
                           1         2         3
     Eigenvalues --  2863.913853411.088854763.05459
           X            0.99909   0.04107   0.01109
           Y           -0.04137   0.99874   0.02856
           Z           -0.00990  -0.02899   0.99953
 This molecule is an asymmetric top.
 Rotational symmetry number  1.
 Warning -- assumption of classical behavior for rotation
           may cause significant error
 Rotational temperatures (Kelvin)      0.03024     0.02539     0.01818
 Rotational constants (GHZ):           0.63017     0.52908     0.37890
 Zero-point vibrational energy     773872.4 (Joules/Mol)
                                  184.95995 (Kcal/Mol)
 Warning -- explicit consideration of  26 degrees of freedom as
           vibrations may cause significant error
 Vibrational temperatures:     52.99    69.15    91.52   123.78   136.74
          (Kelvin)            151.69   176.31   215.94   230.69   241.68
                              278.84   298.08   312.79   349.93   394.71
                              400.76   422.58   434.76   500.02   556.29
                              584.44   657.66   684.00   701.43   747.50
                              869.84   949.36  1031.68  1109.20  1250.41
                             1295.76  1341.25  1402.76  1425.85  1461.60
                             1492.17  1542.84  1552.73  1566.38  1609.59
                             1637.23  1650.48  1666.98  1689.06  1696.98
                             1703.38  1709.42  1713.71  1757.38  1763.75
                             1766.92  1768.92  1788.19  1831.45  1874.96
                             1886.77  1921.73  1959.22  1968.16  2026.52
                             2028.60  2050.98  2067.98  2150.53  2157.39
                             2159.11  2161.14  2173.51  2174.95  2176.65
                             2186.78  2189.66  2198.31  2205.77  2212.69
                             2216.03  2375.34  4314.15  4345.62  4364.32
                             4369.35  4375.80  4386.65  4403.33  4406.04
                             4450.92  4462.54  4480.84  4489.79  4502.00
                             4552.59  4555.39  4558.50  4570.00  4574.69
                             4606.08

 Zero-point correction=                           0.294752 (Hartree/Particle)
 Thermal correction to Energy=                    0.311997
 Thermal correction to Enthalpy=                  0.312941
 Thermal correction to Gibbs Free Energy=         0.249501
 Sum of electronic and zero-point Energies=           -768.035577
 Sum of electronic and thermal Energies=              -768.018332
 Sum of electronic and thermal Enthalpies=            -768.017388
 Sum of electronic and thermal Free Energies=         -768.080828

                     E (Thermal)             CV                S
                      KCal/Mol        Cal/Mol-Kelvin    Cal/Mol-Kelvin
 Total                  195.781             61.577            133.521
 Electronic               0.000              0.000              0.000
 Translational            0.889              2.981             42.056
 Rotational               0.889              2.981             32.209
 Vibrational            194.004             55.615             59.256
 Vibration     1          0.594              1.982              5.423
 Vibration     2          0.595              1.978              4.896
 Vibration     3          0.597              1.972              4.342
 Vibration     4          0.601              1.959              3.748
 Vibration     5          0.603              1.953              3.554
 Vibration     6          0.605              1.945              3.351
 Vibration     7          0.610              1.930              3.060
 Vibration     8          0.618              1.903              2.671
 Vibration     9          0.622              1.891              2.546
 Vibration    10          0.625              1.882              2.458
 Vibration    11          0.635              1.848              2.191
 Vibration    12          0.641              1.830              2.068
 Vibration    13          0.646              1.815              1.981
 Vibration    14          0.659              1.774              1.779
 Vibration    15          0.677              1.721              1.569
 Vibration    16          0.679              1.713              1.543
 Vibration    17          0.689              1.685              1.452
 Vibration    18          0.694              1.670              1.405
 Vibration    19          0.725              1.580              1.177
 Vibration    20          0.755              1.499              1.013
 Vibration    21          0.771              1.457              0.940
 Vibration    22          0.815              1.345              0.775
 Vibration    23          0.832              1.305              0.723
 Vibration    24          0.843              1.278              0.690
 Vibration    25          0.875              1.207              0.611
 Vibration    26          0.963              1.022              0.442

                           ! Non-Optimized Parameters !
 Normal termination of Gaussian 16 at Fri May 24 08:52:26 2019.
