 Gaussian 16, Revision A.03,
 Gaussian 16:  ES64L-G16RevA.03 25-Dec-2016

 -------------------------------------------------------------------
 #p b3lyp 6-31g* opt freq=noraman scrf=(pcm,solvent=tetrahydrofuran)
 -------------------------------------------------------------------

 -----
 title
 -----
 Symbolic Z-matrix:
 Charge =  1 Multiplicity = 1

 SCF Done:  E(RB3LYP) =  -768.333599106     A.U. after   13 cycles
 Optimization completed.
    -- Stationary point found.
 Normal termination of Gaussian 16 at Fri May 24 08:34:25 2019.

 --------------------------------------------------------------------
 #P Geom=AllCheck Guess=TCheck SCRF=Check GenChk RB3LYP/6-31G(d) Freq
 --------------------------------------------------------------------

 Structure from the checkpoint file:  "/scratch/Gau-72983.chk"
 -----
 title
 -----
 Charge =  1 Multiplicity = 1

                         Standard orientation:
 ---------------------------------------------------------------------
 Center     Atomic      Atomic             Coordinates (Angstroms)
 Number     Number       Type             X           Y           Z
 ---------------------------------------------------------------------
      1          6           0        0.834278    0.246661    0.411489
      2          6           0        0.273500    1.057773   -0.792928
      3          6           0       -0.182594    0.225326   -1.929485
      4          6           0       -0.768168   -1.597454   -0.483452
      5          6           0        0.525073   -1.267504    0.263116
      6          1           0       -0.121903    0.617440   -2.945738
      7          1           0       -0.685548    1.480702   -0.428472
      8          1           0        1.925439    0.358933    0.367901
      9          1           0       -0.736915   -2.648367   -0.769343
     10          1           0        0.449451   -1.727741    1.257797
     11          8           0       -0.703312   -0.914777   -1.829305
     12          8           0        1.132127    2.035180   -1.304916
     13          8           0        0.315898    0.828309    1.585895
     14          8           0        1.540034   -1.873131   -0.523751
     15          6           0       -2.124815   -1.291893    0.128030
     16          1           0       -2.164158   -1.805628    1.101549
     17          1           0       -2.904613   -1.731349   -0.511889
     18          8           0       -2.302573    0.097388    0.251838
     19          6           0        1.098637    3.279646   -0.593228
     20          1           0        1.777832    3.947423   -1.124386
     21          1           0        0.086469    3.703477   -0.598360
     22          1           0        1.436289    3.156991    0.441091
     23          6           0        1.145386    0.663260    2.736157
     24          1           0        1.264043   -0.392652    3.012190
     25          1           0        2.137747    1.104457    2.573237
     26          1           0        0.644172    1.187595    3.551448
     27          6           0        2.700228   -2.281418    0.201850
     28          1           0        3.374721   -2.730335   -0.528921
     29          1           0        3.206943   -1.433993    0.680967
     30          1           0        2.440765   -3.025067    0.966332
     31          6           0       -3.559841    0.448334    0.825378
     32          1           0       -3.596881    1.538228    0.856976
     33          1           0       -4.390164    0.070316    0.213884
     34          1           0       -3.651175    0.049429    1.844084
 ---------------------------------------------------------------------

 SCF Done:  E(RB3LYP) =  -768.333599106     A.U. after    1 cycles

 The electronic state is 1-A.
 Alpha  occ. eigenvalues --  -19.32244 -19.20051 -19.19345 -19.19304 -19.18971
 Alpha  occ. eigenvalues --  -10.39141 -10.31882 -10.30991 -10.29512 -10.29279
 Alpha  occ. eigenvalues --  -10.28407 -10.25435 -10.25366 -10.25159 -10.25150
 Alpha  occ. eigenvalues --   -1.21145  -1.09079  -1.07875  -1.07496  -1.06678
 Alpha  occ. eigenvalues --   -0.87020  -0.85204  -0.77517  -0.74567  -0.74033
 Alpha  occ. eigenvalues --   -0.70193  -0.69148  -0.68864  -0.66430  -0.61163
 Alpha  occ. eigenvalues --   -0.58973  -0.58500  -0.56682  -0.53709  -0.53315
 Alpha  occ. eigenvalues --   -0.52835  -0.51818  -0.50508  -0.50102  -0.48981
 Alpha  occ. eigenvalues --   -0.48349  -0.47381  -0.46698  -0.46197  -0.45921
 Alpha  occ. eigenvalues --   -0.43879  -0.42756  -0.42638  -0.41632  -0.40513
 Alpha  occ. eigenvalues --   -0.39071  -0.37431  -0.36304  -0.35562  -0.35471
 Alpha  occ. eigenvalues --   -0.31689  -0.31060  -0.29635  -0.27899
 Alpha virt. eigenvalues --   -0.14372   0.01054   0.04254   0.05481   0.06318
 Alpha virt. eigenvalues --    0.06451   0.08467   0.09404   0.10007   0.10227
 Alpha virt. eigenvalues --    0.11123   0.11407   0.11960   0.12709   0.13190

 Mulliken charges:
               1
     1  C    0.150805
     2  C    0.038606
     3  C    0.296785
     4  C    0.048625
     5  C    0.046699
     6  H    0.275836
     7  H    0.265263
     8  H    0.188554
     9  H    0.240899
    10  H    0.195126
    11  O   -0.311234
    12  O   -0.488346
    13  O   -0.487517
    14  O   -0.489066
    15  C   -0.019329
    16  H    0.183293
    17  H    0.179479
    18  O   -0.484421
    19  C   -0.227022
    20  H    0.188024
    21  H    0.167692
    22  H    0.174467
    23  C   -0.227184
    24  H    0.158562
    25  H    0.163769
    26  H    0.185695
    27  C   -0.224597
    28  H    0.188045
    29  H    0.161008
    30  H    0.165934
    31  C   -0.212314
    32  H    0.182124
    33  H    0.161847
    34  H    0.163892
 Sum of Mulliken charges =   1.00000

 Dipole moment (field-independent basis, Debye):
    X=             -1.4182    Y=             -1.2216    Z=             -0.0284  Tot=              1.8720
 Quadrupole moment (field-independent basis, Debye-Ang):
   XX=            -66.7653   YY=            -68.7982   ZZ=            -73.6865
   XY=              1.2206   XZ=              4.7311   YZ=             -3.5982

  Exact polarizability: 140.085   3.815 149.569   0.896  -1.007 137.778
 Approx polarizability: 153.129   6.008 167.733  -1.043   1.026 161.413

                      1                      2                      3
                      A                      A                      A
 Frequencies --     37.0754                58.6801                74.5769
 Red. masses --      2.8982                 3.4759                 3.2196
 Frc consts  --      0.0023                 0.0071                 0.0106
 IR Inten    --      1.1792                 2.3978                 0.7486

                      4                      5                      6
                      A                      A                      A
 Frequencies --     96.2455               106.1772               113.0333
 Red. masses --      2.5082                 2.2234                 2.6081
 Frc consts  --      0.0137                 0.0148                 0.0196
 IR Inten    --      6.3081                 2.5993                 6.3977

                      7                      8                      9
                      A                      A                      A
 Frequencies --    118.0408               135.6076               168.9541
 Red. masses --      3.1915                 3.5909                 2.7928
 Frc consts  --      0.0262                 0.0389                 0.0470
 IR Inten    --      3.6309                10.3756                 5.3594

                     10                     11                     12
                      A                      A                      A
 Frequencies --    183.4354               204.1004               221.6286
 Red. masses --      1.3435                 1.5767                 1.5432
 Frc consts  --      0.0266                 0.0387                 0.0447
 IR Inten    --      1.7223                 1.4765                 6.2270

                     13                     14                     15
                      A                      A                      A
 Frequencies --    229.8790               245.5146               254.2251
 Red. masses --      2.0965                 1.6432                 1.9375
 Frc consts  --      0.0653                 0.0584                 0.0738
 IR Inten    --      1.8199                 1.9916                 3.5933

                     16                     17                     18
                      A                      A                      A
 Frequencies --    282.2134               311.5385               321.2424
 Red. masses --      2.8894                 3.6240                 3.1457
 Frc consts  --      0.1356                 0.2072                 0.1913
 IR Inten    --     10.1868                13.7808                 0.2702

                     19                     20                     21
                      A                      A                      A
 Frequencies --    346.9004               372.5410               404.9715
 Red. masses --      4.1071                 3.6258                 4.0458
 Frc consts  --      0.2912                 0.2965                 0.3909
 IR Inten    --      6.9888                 6.0639                19.1639

                     22                     23                     24
                      A                      A                      A
 Frequencies --    466.5690               487.8664               505.0683
 Red. masses --      4.5238                 3.9000                 5.0825
 Frc consts  --      0.5802                 0.5469                 0.7639
 IR Inten    --     13.4165                11.3916                 5.9865

                     25                     26                     27
                      A                      A                      A
 Frequencies --    525.2936               615.4703               667.6062
 Red. masses --      3.5218                 4.5042                 4.8292
 Frc consts  --      0.5726                 1.0053                 1.2681
 IR Inten    --      9.2935                 4.4883                26.6986

                     28                     29                     30
                      A                      A                      A
 Frequencies --    737.1544               781.8198               854.7413
 Red. masses --      4.4014                 2.8674                 3.3819
 Frc consts  --      1.4091                 1.0327                 1.4557
 IR Inten    --     49.0891                 4.3865                30.6903

                     31                     32                     33
                      A                      A                      A
 Frequencies --    913.8056               956.7602               968.0430
 Red. masses --      2.1626                 3.6431                 3.9221
 Frc consts  --      1.0640                 1.9648                 2.1655
 IR Inten    --     27.1588                36.7734                 8.5805

                     34                     35                     36
                      A                      A                      A
 Frequencies --    980.0329              1025.1930              1040.6305
 Red. masses --      2.3822                 5.2253                 3.0114
 Frc consts  --      1.3480                 3.2358                 1.9214
 IR Inten    --     32.3866                24.5793                12.5394

                     37                     38                     39
                      A                      A                      A
 Frequencies --   1059.9580              1061.8563              1113.3430
 Red. masses --      2.3757                 3.2330                 2.1572
 Frc consts  --      1.5726                 2.1478                 1.5755
 IR Inten    --     73.9664                75.8972                96.4767

                     40                     41                     42
                      A                      A                      A
 Frequencies --   1127.3029              1143.5159              1145.3037
 Red. masses --      5.7420                 3.9955                 2.6411
 Frc consts  --      4.2993                 3.0783                 2.0412
 IR Inten    --    301.1193               167.6297                25.4205

                     43                     44                     45
                      A                      A                      A
 Frequencies --   1157.7754              1164.9900              1187.3573
 Red. masses --      2.6200                 2.5510                 1.2591
 Frc consts  --      2.0692                 2.0399                 1.0458
 IR Inten    --    159.1009                50.5776                 2.7731

                     46                     47                     48
                      A                      A                      A
 Frequencies --   1188.3161              1189.8888              1192.4015
 Red. masses --      1.2673                 1.2874                 1.2802
 Frc consts  --      1.0543                 1.0739                 1.0724
 IR Inten    --      2.3490                 3.4314                 8.5693

                     49                     50                     51
                      A                      A                      A
 Frequencies --   1221.1585              1227.0673              1231.2799
 Red. masses --      1.4900                 1.6528                 1.5760
 Frc consts  --      1.3092                 1.4663                 1.4077
 IR Inten    --     25.9268                33.5944                35.9823

                     52                     53                     54
                      A                      A                      A
 Frequencies --   1236.4607              1249.7434              1265.3476
 Red. masses --      1.7749                 1.4529                 1.3231
 Frc consts  --      1.5988                 1.3370                 1.2482
 IR Inten    --     51.6227                99.1804                18.4518

                     55                     56                     57
                      A                      A                      A
 Frequencies --   1295.3633              1325.1355              1327.9118
 Red. masses --      1.2193                 1.2459                 1.4299
 Frc consts  --      1.2055                 1.2890                 1.4856
 IR Inten    --      9.3020                19.9653                 5.0171

                     58                     59                     60
                      A                      A                      A
 Frequencies --   1352.9457              1365.7359              1384.1709
 Red. masses --      1.2971                 1.2878                 1.5139
 Frc consts  --      1.3989                 1.4152                 1.7089
 IR Inten    --     18.2639                18.7615                61.6368

                     61                     62                     63
                      A                      A                      A
 Frequencies --   1410.1535              1426.3669              1441.2526
 Red. masses --      1.4983                 1.5098                 1.3155
 Frc consts  --      1.7554                 1.8098                 1.6100
 IR Inten    --     50.3366                27.5825                15.5752

                     64                     65                     66
                      A                      A                      A
 Frequencies --   1498.4476              1501.3214              1502.9254
 Red. masses --      1.1494                 1.1143                 1.1330
 Frc consts  --      1.5206                 1.4798                 1.5078
 IR Inten    --      2.4468                 6.0851                 1.2867

                     67                     68                     69
                      A                      A                      A
 Frequencies --   1503.0590              1508.3034              1513.3625
 Red. masses --      1.1210                 1.0466                 1.0531
 Frc consts  --      1.4922                 1.4028                 1.4210
 IR Inten    --      0.3250                 9.8797                 7.5681

                     70                     71                     72
                      A                      A                      A
 Frequencies --   1520.8947              1522.3033              1525.9055
 Red. masses --      1.0724                 1.0583                 1.0815
 Frc consts  --      1.4616                 1.4449                 1.4837
 IR Inten    --     10.6303                16.3130                11.2300

                     73                     74                     75
                      A                      A                      A
 Frequencies --   1528.1090              1530.6877              1536.4494
 Red. masses --      1.0559                 1.0478                 1.0551
 Frc consts  --      1.4528                 1.4464                 1.4675
 IR Inten    --     15.6491                12.7710                 9.1076

                     76                     77                     78
                      A                      A                      A
 Frequencies --   1541.1423              1651.3464              2941.5406
 Red. masses --      1.0940                 6.0358                 1.0752
 Frc consts  --      1.5309                 9.6975                 5.4811
 IR Inten    --      5.5203               198.9560                37.6199

                     79                     80                     81
                      A                      A                      A
 Frequencies --   3013.0169              3029.3238              3030.1426
 Red. masses --      1.0548                 1.0348                 1.0355
 Frc consts  --      5.6421                 5.5949                 5.6021
 IR Inten    --     34.1817                63.8349                50.8580

                     82                     83                     84
                      A                      A                      A
 Frequencies --   3034.3082              3046.7931              3048.6219
 Red. masses --      1.0345                 1.0354                 1.1051
 Frc consts  --      5.6119                 5.6630                 6.0515
 IR Inten    --     52.9305                48.6950                36.5153

                     85                     86                     87
                      A                      A                      A
 Frequencies --   3054.6225              3057.2892              3088.0957
 Red. masses --      1.0854                 1.0839                 1.1065
 Frc consts  --      5.9667                 5.9689                 6.2171
 IR Inten    --     30.2567                16.2314                55.4759

                     88                     89                     90
                      A                      A                      A
 Frequencies --   3088.5648              3095.0304              3118.1316
 Red. masses --      1.1071                 1.1065                 1.1039
 Frc consts  --      6.2225                 6.2452                 6.3236
 IR Inten    --     49.2326                53.3465                42.5870

                     91                     92                     93
                      A                      A                      A
 Frequencies --   3164.6484              3165.8706              3167.1426
 Red. masses --      1.1004                 1.0883                 1.1008
 Frc consts  --      6.4931                 6.4267                 6.5058
 IR Inten    --     23.7407                 1.9268                22.4985

                     94                     95                     96
                      A                      A                      A
 Frequencies --   3167.4246              3176.3910              3202.9585
 Red. masses --      1.1005                 1.1033                 1.0947
 Frc consts  --      6.5049                 6.5583                 6.6167
 IR Inten    --     19.6440                21.6862                 1.7074

 - Thermochemistry -
 -------------------
 Temperature   298.150 Kelvin.  Pressure   1.00000 Atm.
 Atom     1 has atomic number  6 and mass  12.00000

 Molecular mass:   219.12325 amu.
 Principal axes and moments of inertia in atomic units:
                           1         2         3
     Eigenvalues --  3032.134013343.878433978.93274
           X            0.99935  -0.03315   0.01445
           Y            0.03347   0.99920  -0.02194
           Z           -0.01371   0.02241   0.99965
 This molecule is an asymmetric top.
 Rotational symmetry number  1.
 Warning -- assumption of classical behavior for rotation
           may cause significant error
 Rotational temperatures (Kelvin)      0.02857     0.02590     0.02177
 Rotational constants (GHZ):           0.59520     0.53971     0.45357
 Zero-point vibrational energy     773857.8 (Joules/Mol)
                                  184.95644 (Kcal/Mol)
 Warning -- explicit consideration of  26 degrees of freedom as
           vibrations may cause significant error
 Vibrational temperatures:     53.34    84.43   107.30   138.48   152.77
          (Kelvin)            162.63   169.83   195.11   243.09   263.92
                              293.65   318.87   330.74   353.24   365.77
                              406.04   448.23   462.20   499.11   536.00
                              582.66   671.29   701.93   726.68   755.78
                              885.52   960.54  1060.60  1124.86  1229.78
                             1314.76  1376.56  1392.80  1410.05  1475.02
                             1497.24  1525.04  1527.77  1601.85  1621.94
                             1645.26  1647.84  1665.78  1676.16  1708.34
                             1709.72  1711.98  1715.60  1756.97  1765.48
                             1771.54  1778.99  1798.10  1820.55  1863.74
                             1906.57  1910.57  1946.59  1964.99  1991.51
                             2028.90  2052.22  2073.64  2155.93  2160.07
                             2162.37  2162.57  2170.11  2177.39  2188.23
                             2190.25  2195.44  2198.61  2202.32  2210.61
                             2217.36  2375.92  4232.22  4335.06  4358.52
                             4359.70  4365.69  4383.66  4386.29  4394.92
                             4398.76  4443.08  4443.76  4453.06  4486.30
                             4553.22  4554.98  4556.81  4557.22  4570.12
                             4608.34

 Zero-point correction=                           0.294747 (Hartree/Particle)
 Thermal correction to Energy=                    0.311761
 Thermal correction to Enthalpy=                  0.312705
 Thermal correction to Gibbs Free Energy=         0.250205
 Sum of electronic and zero-point Energies=           -768.038852
 Sum of electronic and thermal Energies=              -768.021838
 Sum of electronic and thermal Enthalpies=            -768.020894
 Sum of electronic and thermal Free Energies=         -768.083394

                     E (Thermal)             CV                S
                      KCal/Mol        Cal/Mol-Kelvin    Cal/Mol-Kelvin
 Total                  195.633             61.247            131.543
 Electronic               0.000              0.000              0.000
 Translational            0.889              2.981             42.056
 Rotational               0.889              2.981             32.067
 Vibrational            193.855             55.285             57.419
 Vibration     1          0.594              1.982              5.410
 Vibration     2          0.596              1.974              4.501
 Vibration     3          0.599              1.966              4.029
 Vibration     4          0.603              1.952              3.529
 Vibration     5          0.605              1.944              3.338
 Vibration     6          0.607              1.939              3.216
 Vibration     7          0.608              1.934              3.132
 Vibration     8          0.613              1.918              2.865
 Vibration     9          0.625              1.881              2.447
 Vibration    10          0.631              1.862              2.293
 Vibration    11          0.640              1.834              2.096
 Vibration    12          0.648              1.808              1.946
 Vibration    13          0.652              1.795              1.880
 Vibration    14          0.660              1.770              1.763
 Vibration    15          0.665              1.756              1.701
 Vibration    16          0.681              1.707              1.520
 Vibration    17          0.700              1.652              1.354
 Vibration    18          0.707              1.633              1.304
 Vibration    19          0.725              1.582              1.180
 Vibration    20          0.744              1.529              1.069
 Vibration    21          0.770              1.459              0.945
 Vibration    22          0.824              1.324              0.747
 Vibration    23          0.844              1.277              0.689
 Vibration    24          0.860              1.239              0.646
 Vibration    25          0.880              1.194              0.598
 Vibration    26          0.975              0.999              0.424

 Optimization completed.
    -- Stationary point found.
 Normal termination of Gaussian 16 at Fri May 24 08:55:27 2019.
