 Gaussian 16, Revision A.03,
 Gaussian 16:  ES64L-G16RevA.03 25-Dec-2016

 -------------------------------------------------------------------
 #p b3lyp 6-31g* opt freq=noraman scrf=(pcm,solvent=tetrahydrofuran)
 -------------------------------------------------------------------

 -----
 title
 -----
 Symbolic Z-matrix:
 Charge =  1 Multiplicity = 1

 SCF Done:  E(RB3LYP) =  -768.331496623     A.U. after   13 cycles
 Optimization completed.
    -- Stationary point found.
 Normal termination of Gaussian 16 at Fri May 24 08:35:06 2019.

 --------------------------------------------------------------------
 #P Geom=AllCheck Guess=TCheck SCRF=Check GenChk RB3LYP/6-31G(d) Freq
 --------------------------------------------------------------------

 Structure from the checkpoint file:  "/scratch/Gau-12860.chk"
 -----
 title
 -----
 Charge =  1 Multiplicity = 1

                         Standard orientation:
 ---------------------------------------------------------------------
 Center     Atomic      Atomic             Coordinates (Angstroms)
 Number     Number       Type             X           Y           Z
 ---------------------------------------------------------------------
      1          6           0        0.906338    0.463588    0.720694
      2          6           0        1.391080    0.370107   -0.751051
      3          6           0        0.374220   -0.204951   -1.689331
      4          6           0       -1.331033   -0.516139    0.015070
      5          6           0       -0.153881   -0.625634    0.978566
      6          1           0        0.656419   -0.380249   -2.728198
      7          1           0        1.587555    1.390869   -1.115932
      8          1           0        1.779724    0.290672    1.360152
      9          1           0       -1.888957   -1.452101    0.039203
     10          1           0       -0.540003   -0.518040    2.001453
     11          8           0       -0.795285   -0.560302   -1.404566
     12          8           0        2.506892   -0.478306   -0.915903
     13          8           0        0.307737    1.708165    0.994641
     14          8           0        0.381503   -1.913050    0.745373
     15          6           0       -2.279151    0.683281    0.107514
     16          1           0       -1.754178    1.601807   -0.158347
     17          1           0       -2.595282    0.768118    1.157910
     18          8           0       -3.374479    0.549037   -0.766776
     19          6           0        3.700225    0.163866   -1.393057
     20          1           0        4.001430    0.971264   -0.714778
     21          1           0        4.468497   -0.609741   -1.410287
     22          1           0        3.559851    0.563420   -2.403556
     23          6           0        1.220955    2.754419    1.331257
     24          1           0        1.898000    2.988425    0.498925
     25          1           0        0.613681    3.633102    1.552707
     26          1           0        1.814497    2.483083    2.213038
     27          6           0        1.277090   -2.403617    1.746225
     28          1           0        2.243614   -1.888517    1.717471
     29          1           0        0.836549   -2.306633    2.746490
     30          1           0        1.431874   -3.459774    1.519490
     31          6           0       -4.452741   -0.226156   -0.250449
     32          1           0       -4.167357   -1.271621   -0.067553
     33          1           0       -4.836223    0.205446    0.684273
     34          1           0       -5.239257   -0.206464   -1.007261
 ---------------------------------------------------------------------

 SCF Done:  E(RB3LYP) =  -768.331496623     A.U. after    1 cycles

 The electronic state is 1-A.
 Alpha  occ. eigenvalues --  -19.32131 -19.21406 -19.19943 -19.19473 -19.18106
 Alpha  occ. eigenvalues --  -10.39012 -10.31480 -10.31381 -10.29576 -10.29364
 Alpha  occ. eigenvalues --  -10.27524 -10.26193 -10.25719 -10.25229 -10.24637
 Alpha  occ. eigenvalues --   -1.20834  -1.09681  -1.08277  -1.07341  -1.06342
 Alpha  occ. eigenvalues --   -0.86701  -0.85113  -0.77179  -0.74626  -0.74222
 Alpha  occ. eigenvalues --   -0.70833  -0.69709  -0.68717  -0.65554  -0.61401
 Alpha  occ. eigenvalues --   -0.58929  -0.58425  -0.56620  -0.53970  -0.53680
 Alpha  occ. eigenvalues --   -0.52905  -0.51257  -0.50821  -0.49700  -0.49547
 Alpha  occ. eigenvalues --   -0.48280  -0.47550  -0.47112  -0.46189  -0.45748
 Alpha  occ. eigenvalues --   -0.44299  -0.43353  -0.42283  -0.40979  -0.40441
 Alpha  occ. eigenvalues --   -0.39693  -0.37344  -0.36757  -0.35258  -0.34670
 Alpha  occ. eigenvalues --   -0.32610  -0.30480  -0.29546  -0.28861
 Alpha virt. eigenvalues --   -0.14417   0.01240   0.03622   0.04517   0.06599
 Alpha virt. eigenvalues --    0.07134   0.07699   0.08958   0.09345   0.10317
 Alpha virt. eigenvalues --    0.10761   0.11886   0.12225   0.12905   0.13253

 Mulliken charges:
               1
     1  C    0.112677
     2  C    0.036475
     3  C    0.306161
     4  C    0.056021
     5  C    0.062865
     6  H    0.271181
     7  H    0.233343
     8  H    0.190726
     9  H    0.234182
    10  H    0.195791
    11  O   -0.304072
    12  O   -0.463670
    13  O   -0.484964
    14  O   -0.488196
    15  C   -0.042511
    16  H    0.194977
    17  H    0.177942
    18  O   -0.466985
    19  C   -0.233323
    20  H    0.177353
    21  H    0.196890
    22  H    0.177213
    23  C   -0.227447
    24  H    0.161099
    25  H    0.190652
    26  H    0.170833
    27  C   -0.221288
    28  H    0.165898
    29  H    0.163951
    30  H    0.186596
    31  C   -0.224475
    32  H    0.153308
    33  H    0.159078
    34  H    0.181721
 Sum of Mulliken charges =   1.00000

 Dipole moment (field-independent basis, Debye):
    X=              3.5849    Y=              1.2157    Z=             -0.3402  Tot=              3.8007
 Quadrupole moment (field-independent basis, Debye-Ang):
   XX=            -59.4122   YY=            -78.7886   ZZ=            -71.6977
   XY=              8.7973   XZ=             -7.6019   YZ=             -1.6390

  Exact polarizability: 172.590   2.308 133.113  -4.518   1.847 133.010
 Approx polarizability: 184.887   1.527 152.801  -1.340   2.367 155.456

                      1                      2                      3
                      A                      A                      A
 Frequencies --     54.5679                57.1942                76.3365
 Red. masses --      3.7757                 3.1048                 2.7555
 Frc consts  --      0.0066                 0.0060                 0.0095
 IR Inten    --      3.3978                 0.9349                 0.3690

                      4                      5                      6
                      A                      A                      A
 Frequencies --     81.5605                84.6801               106.0844
 Red. masses --      2.7310                 2.8207                 2.2781
 Frc consts  --      0.0107                 0.0119                 0.0151
 IR Inten    --      2.5950                 1.7071                 3.5303

                      7                      8                      9
                      A                      A                      A
 Frequencies --    120.9096               127.9733               143.4322
 Red. masses --      2.1602                 2.6711                 2.5491
 Frc consts  --      0.0186                 0.0258                 0.0309
 IR Inten    --      7.7056                 3.2929                 3.8226

                     10                     11                     12
                      A                      A                      A
 Frequencies --    155.3881               183.5398               200.4323
 Red. masses --      2.2482                 1.2271                 1.6310
 Frc consts  --      0.0320                 0.0244                 0.0386
 IR Inten    --      5.3021                 0.1910                 2.4697

                     13                     14                     15
                      A                      A                      A
 Frequencies --    217.6789               236.5210               271.9342
 Red. masses --      1.9428                 1.3118                 3.5964
 Frc consts  --      0.0542                 0.0432                 0.1567
 IR Inten    --      7.4088                 3.7628                 1.1070

                     16                     17                     18
                      A                      A                      A
 Frequencies --    274.5736               314.6977               324.5379
 Red. masses --      4.2007                 3.6143                 3.6051
 Frc consts  --      0.1866                 0.2109                 0.2237
 IR Inten    --     16.1456                 8.3235                 0.9841

                     19                     20                     21
                      A                      A                      A
 Frequencies --    354.9605               396.5388               419.4600
 Red. masses --      4.3179                 4.1219                 3.8005
 Frc consts  --      0.3205                 0.3819                 0.3940
 IR Inten    --     16.1181                15.4569                 7.8840

                     22                     23                     24
                      A                      A                      A
 Frequencies --    454.4854               471.7326               521.0251
 Red. masses --      2.6543                 3.5475                 5.0228
 Frc consts  --      0.3230                 0.4651                 0.8034
 IR Inten    --      2.1202                24.4777                 5.8029

                     25                     26                     27
                      A                      A                      A
 Frequencies --    553.9402               580.7250               650.1792
 Red. masses --      3.7613                 4.6728                 4.7866
 Frc consts  --      0.6800                 0.9285                 1.1922
 IR Inten    --     38.4948                21.9740                21.1792

                     28                     29                     30
                      A                      A                      A
 Frequencies --    683.6856               839.8432               904.7013
 Red. masses --      4.0829                 2.4420                 3.3861
 Frc consts  --      1.1244                 1.0148                 1.6329
 IR Inten    --     41.4010                 3.3383                44.5473

                     31                     32                     33
                      A                      A                      A
 Frequencies --    916.4386               937.5587               949.9663
 Red. masses --      2.2441                 4.3265                 4.1712
 Frc consts  --      1.1105                 2.2407                 2.2178
 IR Inten    --     17.4764                45.9043                40.7349

                     34                     35                     36
                      A                      A                      A
 Frequencies --    969.3881              1012.6147              1027.4661
 Red. masses --      4.2320                 2.7178                 3.0904
 Frc consts  --      2.3431                 1.6419                 1.9222
 IR Inten    --      7.7156                 8.3691                 3.9838

                     37                     38                     39
                      A                      A                      A
 Frequencies --   1038.9304              1077.6965              1107.3567
 Red. masses --      3.3139                 2.3997                 2.2844
 Frc consts  --      2.1075                 1.6421                 1.6504
 IR Inten    --     46.5674                12.5305                97.5704

                     40                     41                     42
                      A                      A                      A
 Frequencies --   1128.7751              1131.5835              1138.9730
 Red. masses --      3.5815                 2.8701                 4.7580
 Frc consts  --      2.6886                 2.1653                 3.6367
 IR Inten    --     86.9169               210.7692               185.3136

                     43                     44                     45
                      A                      A                      A
 Frequencies --   1152.2756              1163.9430              1183.0632
 Red. masses --      3.1458                 2.8108                 1.2838
 Frc consts  --      2.4609                 2.2436                 1.0587
 IR Inten    --    136.4106               135.9570                 6.2872

                     46                     47                     48
                      A                      A                      A
 Frequencies --   1188.8858              1189.9188              1192.9036
 Red. masses --      1.2832                 1.2868                 1.2870
 Frc consts  --      1.0686                 1.0735                 1.0791
 IR Inten    --      0.4421                 6.3535                 3.8309

                     49                     50                     51
                      A                      A                      A
 Frequencies --   1213.9497              1227.2856              1228.5252
 Red. masses --      1.4582                 1.7346                 1.5648
 Frc consts  --      1.2661                 1.5393                 1.3915
 IR Inten    --     31.1823                46.2611                35.6249

                     52                     53                     54
                      A                      A                      A
 Frequencies --   1231.1077              1251.4386              1305.1209
 Red. masses --      1.6193                 1.8250                 1.3249
 Frc consts  --      1.4460                 1.6840                 1.3297
 IR Inten    --     65.6230                29.8083                 2.0643

                     55                     56                     57
                      A                      A                      A
 Frequencies --   1326.9745              1331.8057              1352.9849
 Red. masses --      1.2161                 1.2062                 1.2470
 Frc consts  --      1.2617                 1.2605                 1.3449
 IR Inten    --     16.3075                 6.0761                20.0289

                     58                     59                     60
                      A                      A                      A
 Frequencies --   1355.0762              1370.5153              1386.9618
 Red. masses --      1.3953                 1.2528                 1.5136
 Frc consts  --      1.5096                 1.3864                 1.7155
 IR Inten    --     38.2732                22.4349                52.1368

                     61                     62                     63
                      A                      A                      A
 Frequencies --   1421.7943              1426.2647              1437.2531
 Red. masses --      1.2820                 1.4662                 1.3238
 Frc consts  --      1.5269                 1.7572                 1.6111
 IR Inten    --      8.2755                22.8468                60.3735

                     64                     65                     66
                      A                      A                      A
 Frequencies --   1492.7946              1498.0766              1500.6388
 Red. masses --      1.0900                 1.1290                 1.1153
 Frc consts  --      1.4312                 1.4929                 1.4798
 IR Inten    --      3.3899                 4.5676                 0.9447

                     67                     68                     69
                      A                      A                      A
 Frequencies --   1503.7706              1505.2820              1514.9354
 Red. masses --      1.1101                 1.1060                 1.0597
 Frc consts  --      1.4790                 1.4765                 1.4330
 IR Inten    --      7.3835                 9.7156                13.9492

                     70                     71                     72
                      A                      A                      A
 Frequencies --   1517.8767              1518.2262              1522.0647
 Red. masses --      1.0763                 1.0717                 1.0506
 Frc consts  --      1.4610                 1.4554                 1.4340
 IR Inten    --      8.8778                 2.4560                22.7579

                     73                     74                     75
                      A                      A                      A
 Frequencies --   1526.4152              1526.7149              1528.9879
 Red. masses --      1.0584                 1.0466                 1.0738
 Frc consts  --      1.4529                 1.4373                 1.4790
 IR Inten    --      2.6976                18.9753                 5.9858

                     76                     77                     78
                      A                      A                      A
 Frequencies --   1531.4756              1646.2397              3018.6435
 Red. masses --      1.0692                 5.6578                 1.0377
 Frc consts  --      1.4775                 9.0341                 5.5709
 IR Inten    --     11.2347               312.2100                55.2636

                     79                     80                     81
                      A                      A                      A
 Frequencies --   3020.2889              3030.5546              3033.1227
 Red. masses --      1.0801                 1.0365                 1.0688
 Frc consts  --      5.8050                 5.6089                 5.7932
 IR Inten    --      8.7560                32.6634                24.0215

                     82                     83                     84
                      A                      A                      A
 Frequencies --   3042.4916              3047.4250              3057.7943
 Red. masses --      1.0341                 1.0332                 1.0843
 Frc consts  --      5.6398                 5.6532                 5.9735
 IR Inten    --     48.9551                55.4241                26.0098

                     85                     86                     87
                      A                      A                      A
 Frequencies --   3074.6547              3078.2608              3093.3744
 Red. masses --      1.1062                 1.0850                 1.1053
 Frc consts  --      6.1614                 6.0577                 6.2316
 IR Inten    --     70.3866                27.8864                53.9833

                     88                     89                     90
                      A                      A                      A
 Frequencies --   3110.3369              3116.9959              3156.9965
 Red. masses --      1.1059                 1.1074                 1.0933
 Frc consts  --      6.3036                 6.3393                 6.4202
 IR Inten    --     46.4351                32.5268                11.9661

                     91                     92                     93
                      A                      A                      A
 Frequencies --   3158.3237              3165.1179              3171.3315
 Red. masses --      1.0966                 1.1019                 1.0988
 Frc consts  --      6.4449                 6.5039                 6.5113
 IR Inten    --     19.5576                22.5827                18.6720

                     94                     95                     96
                      A                      A                      A
 Frequencies --   3171.7377              3180.1033              3198.7699
 Red. masses --      1.0908                 1.1028                 1.0941
 Frc consts  --      6.4655                 6.5711                 6.5957
 IR Inten    --      6.6302                14.8747                 0.5540

 - Thermochemistry -
 -------------------
 Temperature   298.150 Kelvin.  Pressure   1.00000 Atm.
 Atom     1 has atomic number  6 and mass  12.00000

 Molecular mass:   219.12325 amu.
 Principal axes and moments of inertia in atomic units:
                           1         2         3
     Eigenvalues --  2231.010204549.180314880.93691
           X            0.99984   0.01579  -0.00874
           Y           -0.01611   0.99915  -0.03789
           Z            0.00813   0.03803   0.99924
 This molecule is an asymmetric top.
 Rotational symmetry number  1.
 Warning -- assumption of classical behavior for rotation
           may cause significant error
 Rotational temperatures (Kelvin)      0.03882     0.01904     0.01775
 Rotational constants (GHZ):           0.80893     0.39672     0.36975
 Zero-point vibrational energy     774569.7 (Joules/Mol)
                                  185.12660 (Kcal/Mol)
 Warning -- explicit consideration of  26 degrees of freedom as
           vibrations may cause significant error
 Vibrational temperatures:     78.51    82.29   109.83   117.35   121.84
          (Kelvin)            152.63   173.96   184.12   206.37   223.57
                              264.07   288.38   313.19   340.30   391.25
                              395.05   452.78   466.94   510.71   570.53
                              603.51   653.90   678.72   749.64   797.00
                              835.53   935.46   983.67  1208.35  1301.66
                             1318.55  1348.94  1366.79  1394.73  1456.93
                             1478.29  1494.79  1550.56  1593.24  1624.06
                             1628.10  1638.73  1657.87  1674.65  1702.16
                             1710.54  1712.03  1716.32  1746.60  1765.79
                             1767.57  1771.29  1800.54  1877.78  1909.22
                             1916.17  1946.64  1949.65  1971.87  1995.53
                             2045.64  2052.08  2067.89  2147.80  2155.40
                             2159.08  2163.59  2165.77  2179.65  2183.89
                             2184.39  2189.91  2196.17  2196.60  2199.87
                             2203.45  2368.57  4343.15  4345.52  4360.29
                             4363.99  4377.47  4384.56  4399.48  4423.74
                             4428.93  4450.68  4475.08  4484.66  4542.21
                             4544.12  4553.90  4562.84  4563.42  4575.46
                             4602.32

 Zero-point correction=                           0.295018 (Hartree/Particle)
 Thermal correction to Energy=                    0.312229
 Thermal correction to Enthalpy=                  0.313173
 Thermal correction to Gibbs Free Energy=         0.250027
 Sum of electronic and zero-point Energies=           -768.036479
 Sum of electronic and thermal Energies=              -768.019268
 Sum of electronic and thermal Enthalpies=            -768.018324
 Sum of electronic and thermal Free Energies=         -768.081469

                     E (Thermal)             CV                S
                      KCal/Mol        Cal/Mol-Kelvin    Cal/Mol-Kelvin
 Total                  195.926             61.389            132.901
 Electronic               0.000              0.000              0.000
 Translational            0.889              2.981             42.056
 Rotational               0.889              2.981             32.271
 Vibrational            194.149             55.427             58.574
 Vibration     1          0.596              1.976              4.645
 Vibration     2          0.596              1.975              4.552
 Vibration     3          0.599              1.965              3.983
 Vibration     4          0.600              1.962              3.853
 Vibration     5          0.601              1.960              3.779
 Vibration     6          0.605              1.944              3.339
 Vibration     7          0.609              1.932              3.086
 Vibration     8          0.611              1.925              2.976
 Vibration     9          0.616              1.910              2.758
 Vibration    10          0.620              1.897              2.605
 Vibration    11          0.631              1.862              2.292
 Vibration    12          0.638              1.839              2.129
 Vibration    13          0.646              1.814              1.978
 Vibration    14          0.655              1.785              1.829
 Vibration    15          0.675              1.725              1.584
 Vibration    16          0.677              1.720              1.567
 Vibration    17          0.702              1.646              1.338
 Vibration    18          0.709              1.626              1.287
 Vibration    19          0.731              1.565              1.144
 Vibration    20          0.763              1.478              0.975
 Vibration    21          0.782              1.428              0.894
 Vibration    22          0.813              1.351              0.782
 Vibration    23          0.829              1.313              0.733
 Vibration    24          0.876              1.203              0.608
 Vibration    25          0.909              1.131              0.536
 Vibration    26          0.937              1.073              0.484

                           ! Non-Optimized Parameters !
 Normal termination of Gaussian 16 at Fri May 24 08:55:43 2019.
