 Gaussian 16, Revision A.03,
 Gaussian 16:  ES64L-G16RevA.03 25-Dec-2016

 -------------------------------------------------------------------
 #p b3lyp 6-31g* opt freq=noraman scrf=(pcm,solvent=tetrahydrofuran)
 -------------------------------------------------------------------

 -----
 title
 -----
 Symbolic Z-matrix:
 Charge =  1 Multiplicity = 1

 SCF Done:  E(RB3LYP) =  -768.331215316     A.U. after   14 cycles
 Optimization completed.
    -- Stationary point found.
 Normal termination of Gaussian 16 at Fri May 24 08:39:52 2019.

 --------------------------------------------------------------------
 #P Geom=AllCheck Guess=TCheck SCRF=Check GenChk RB3LYP/6-31G(d) Freq
 --------------------------------------------------------------------

 Structure from the checkpoint file:  "/scratch/Gau-58402.chk"
 -----
 title
 -----
 Charge =  1 Multiplicity = 1

                         Standard orientation:
 ---------------------------------------------------------------------
 Center     Atomic      Atomic             Coordinates (Angstroms)
 Number     Number       Type             X           Y           Z
 ---------------------------------------------------------------------
      1          6           0       -1.101911    0.458751   -0.252022
      2          6           0       -1.510728   -0.947125    0.246683
      3          6           0       -0.417122   -1.941232    0.021031
      4          6           0        1.343037   -0.256171   -0.150581
      5          6           0        0.303094    0.791264    0.276351
      6          1           0       -0.648952   -3.004348   -0.060914
      7          1           0       -1.670227   -0.877291    1.337089
      8          1           0       -1.076467    0.452493   -1.349599
      9          1           0        1.600612   -0.111826   -1.201014
     10          1           0        0.264057    0.856192    1.373896
     11          8           0        0.793799   -1.664202   -0.158848
     12          8           0       -2.651198   -1.414687   -0.428085
     13          8           0       -2.005061    1.418321    0.232133
     14          8           0        0.789108    1.992406   -0.282083
     15          6           0        2.587628   -0.307663    0.735175
     16          1           0        2.307405   -0.677637    1.727350
     17          1           0        2.941599    0.728169    0.841064
     18          8           0        3.583731   -1.162679    0.236170
     19          6           0       -3.632473   -2.054420    0.402540
     20          1           0       -4.468875   -2.295790   -0.253930
     21          1           0       -3.243766   -2.977609    0.849011
     22          1           0       -3.963768   -1.373899    1.195761
     23          6           0       -3.011131    1.832231   -0.699936
     24          1           0       -3.616373    2.576852   -0.180018
     25          1           0       -2.556091    2.289160   -1.587626
     26          1           0       -3.642352    0.990893   -1.003033
     27          6           0        0.642800    3.154444    0.543566
     28          1           0       -0.410228    3.358587    0.754129
     29          1           0        1.192401    3.035736    1.486268
     30          1           0        1.075552    3.980162   -0.024090
     31          6           0        4.434403   -0.567136   -0.741214
     32          1           0        3.888999   -0.286218   -1.652734
     33          1           0        4.934214    0.323692   -0.337536
     34          1           0        5.183645   -1.318241   -0.997922
 ---------------------------------------------------------------------

 SCF Done:  E(RB3LYP) =  -768.331215316     A.U. after    1 cycles

 The electronic state is 1-A.
 Alpha  occ. eigenvalues --  -19.32911 -19.21346 -19.19284 -19.19060 -19.18344
 Alpha  occ. eigenvalues --  -10.39523 -10.31855 -10.31630 -10.29652 -10.29340
 Alpha  occ. eigenvalues --  -10.27861 -10.26206 -10.24824 -10.24824 -10.24722
 Alpha  occ. eigenvalues --   -1.21528  -1.09854  -1.08132  -1.06631  -1.06266
 Alpha  occ. eigenvalues --   -0.87129  -0.85850  -0.77185  -0.74939  -0.73700
 Alpha  occ. eigenvalues --   -0.71297  -0.69000  -0.67743  -0.65078  -0.63194
 Alpha  occ. eigenvalues --   -0.60310  -0.58761  -0.55615  -0.54900  -0.53594
 Alpha  occ. eigenvalues --   -0.51976  -0.51274  -0.50854  -0.50376  -0.49290
 Alpha  occ. eigenvalues --   -0.48865  -0.47888  -0.46055  -0.45769  -0.45430
 Alpha  occ. eigenvalues --   -0.43876  -0.43398  -0.41584  -0.41022  -0.40563
 Alpha  occ. eigenvalues --   -0.40234  -0.37419  -0.35874  -0.35599  -0.34822
 Alpha  occ. eigenvalues --   -0.32483  -0.30723  -0.29547  -0.27838
 Alpha virt. eigenvalues --   -0.15084   0.00242   0.04839   0.05620   0.06507
 Alpha virt. eigenvalues --    0.06901   0.07567   0.08540   0.08774   0.10506
 Alpha virt. eigenvalues --    0.11384   0.11541   0.11873   0.12563   0.13201

 Mulliken charges:
               1
     1  C    0.130977
     2  C    0.034990
     3  C    0.300151
     4  C    0.061974
     5  C    0.084236
     6  H    0.275815
     7  H    0.235047
     8  H    0.181651
     9  H    0.239727
    10  H    0.177892
    11  O   -0.305158
    12  O   -0.470698
    13  O   -0.489928
    14  O   -0.488584
    15  C   -0.046694
    16  H    0.187865
    17  H    0.186660
    18  O   -0.467310
    19  C   -0.234006
    20  H    0.197322
    21  H    0.172707
    22  H    0.180838
    23  C   -0.225781
    24  H    0.180593
    25  H    0.165294
    26  H    0.170027
    27  C   -0.225577
    28  H    0.175886
    29  H    0.160325
    30  H    0.180961
    31  C   -0.225014
    32  H    0.154492
    33  H    0.161052
    34  H    0.182268
 Sum of Mulliken charges =   1.00000

 Dipole moment (field-independent basis, Debye):
    X=             -2.2600    Y=             -2.8716    Z=              1.1717  Tot=              3.8375
 Quadrupole moment (field-independent basis, Debye-Ang):
   XX=            -61.5593   YY=            -68.4761   ZZ=            -82.8761
   XY=             10.5939   XZ=             -3.7808   YZ=             -0.9750

  Exact polarizability: 177.213   4.857 150.444  -2.426   0.056 113.804
 Approx polarizability: 184.305   1.359 166.537  -3.502   0.118 142.905

                      1                      2                      3
                      A                      A                      A
 Frequencies --     41.0125                57.4924                68.9012
 Red. masses --      3.4457                 3.2367                 3.9478
 Frc consts  --      0.0034                 0.0063                 0.0110
 IR Inten    --      0.0372                 0.9828                 3.6309

                      4                      5                      6
                      A                      A                      A
 Frequencies --     72.6540                94.1481               108.1409
 Red. masses --      2.5559                 2.8481                 2.5884
 Frc consts  --      0.0079                 0.0149                 0.0178
 IR Inten    --      5.1363                 2.7525                 4.4152

                      7                      8                      9
                      A                      A                      A
 Frequencies --    123.2157               139.3743               151.3083
 Red. masses --      2.4712                 1.9814                 1.3008
 Frc consts  --      0.0221                 0.0227                 0.0175
 IR Inten    --      1.0009                 5.8335                 1.4941

                     10                     11                     12
                      A                      A                      A
 Frequencies --    165.1232               168.8073               186.8888
 Red. masses --      1.6242                 1.2976                 1.7442
 Frc consts  --      0.0261                 0.0218                 0.0359
 IR Inten    --      4.2673                 2.6228                 3.7369

                     13                     14                     15
                      A                      A                      A
 Frequencies --    212.7638               226.7894               253.8954
 Red. masses --      1.9460                 2.1343                 4.1102
 Frc consts  --      0.0519                 0.0647                 0.1561
 IR Inten    --      5.1448                13.8186                12.1671

                     16                     17                     18
                      A                      A                      A
 Frequencies --    276.2400               293.9467               327.6340
 Red. masses --      4.2204                 4.6449                 3.5656
 Frc consts  --      0.1897                 0.2365                 0.2255
 IR Inten    --     11.6204                 1.8349                 0.0353

                     19                     20                     21
                      A                      A                      A
 Frequencies --    344.8087               361.0515               411.3252
 Red. masses --      5.3660                 3.9717                 4.7267
 Frc consts  --      0.3759                 0.3050                 0.4712
 IR Inten    --      0.9375                 0.2173                 8.1575

                     22                     23                     24
                      A                      A                      A
 Frequencies --    441.9990               456.9708               519.2072
 Red. masses --      3.4812                 2.5478                 3.3204
 Frc consts  --      0.4007                 0.3135                 0.5274
 IR Inten    --      6.1111                20.0894                17.9024

                     25                     26                     27
                      A                      A                      A
 Frequencies --    530.3775               576.7834               597.4399
 Red. masses --      3.6888                 3.0445                 3.6921
 Frc consts  --      0.6114                 0.5967                 0.7765
 IR Inten    --     28.4391                 6.5058                29.2062

                     28                     29                     30
                      A                      A                      A
 Frequencies --    714.0926               727.5752               847.8897
 Red. masses --      4.0616                 4.0585                 1.8805
 Frc consts  --      1.2203                 1.2658                 0.7965
 IR Inten    --     60.0601                57.0054                12.5152

                     31                     32                     33
                      A                      A                      A
 Frequencies --    935.0591               951.4789               964.4943
 Red. masses --      4.2051                 4.2547                 3.7048
 Frc consts  --      2.1662                 2.2694                 2.0305
 IR Inten    --     24.6113                52.0340                 6.8008

                     34                     35                     36
                      A                      A                      A
 Frequencies --    982.9826              1035.7312              1059.5616
 Red. masses --      4.7452                 4.5514                 2.5422
 Frc consts  --      2.7014                 2.8766                 1.6816
 IR Inten    --     32.2567                55.8893                24.6903

                     37                     38                     39
                      A                      A                      A
 Frequencies --   1083.4034              1089.2114              1104.0478
 Red. masses --      2.9188                 3.6349                 2.9806
 Frc consts  --      2.0185                 2.5408                 2.1406
 IR Inten    --     17.7909               142.5713                24.8654

                     40                     41                     42
                      A                      A                      A
 Frequencies --   1129.0004              1140.3601              1152.4438
 Red. masses --      2.4881                 4.5361                 3.0201
 Frc consts  --      1.8686                 3.4755                 2.3633
 IR Inten    --     41.6836               311.4957                65.9254

                     43                     44                     45
                      A                      A                      A
 Frequencies --   1156.4113              1176.0678              1184.0669
 Red. masses --      3.2790                 3.0227                 1.3909
 Frc consts  --      2.5836                 2.4632                 1.1489
 IR Inten    --     84.6203               237.0544                43.5131

                     46                     47                     48
                      A                      A                      A
 Frequencies --   1186.4699              1189.6550              1193.3266
 Red. masses --      1.3053                 1.2872                 1.3052
 Frc consts  --      1.0826                 1.0734                 1.0951
 IR Inten    --     23.3471                 9.3234                 7.9298

                     49                     50                     51
                      A                      A                      A
 Frequencies --   1214.7672              1224.5212              1227.9999
 Red. masses --      1.4339                 1.5764                 1.6345
 Frc consts  --      1.2467                 1.3927                 1.4522
 IR Inten    --     20.9064                11.9592                17.5250

                     52                     53                     54
                      A                      A                      A
 Frequencies --   1233.5537              1253.8376              1276.3320
 Red. masses --      1.6259                 1.6453                 1.4740
 Frc consts  --      1.4576                 1.5240                 1.4148
 IR Inten    --     61.6432                 7.6919                44.4726

                     55                     56                     57
                      A                      A                      A
 Frequencies --   1315.5330              1321.9050              1353.1640
 Red. masses --      1.3424                 1.2450                 1.1534
 Frc consts  --      1.3688                 1.2818                 1.2443
 IR Inten    --      3.5653                19.2492                40.8004

                     58                     59                     60
                      A                      A                      A
 Frequencies --   1365.0058              1384.0622              1408.6143
 Red. masses --      1.2130                 1.3779                 1.2704
 Frc consts  --      1.3316                 1.5552                 1.4851
 IR Inten    --      7.9541                 8.4654                 3.5924

                     61                     62                     63
                      A                      A                      A
 Frequencies --   1425.9285              1439.7662              1441.3099
 Red. masses --      1.2822                 1.2589                 1.3419
 Frc consts  --      1.5361                 1.5375                 1.6424
 IR Inten    --     14.3284                63.8216                39.6319

                     64                     65                     66
                      A                      A                      A
 Frequencies --   1491.6861              1495.6182              1498.3877
 Red. masses --      1.0996                 1.1084                 1.1486
 Frc consts  --      1.4416                 1.4608                 1.5194
 IR Inten    --      1.8170                 6.4692                 0.5562

                     67                     68                     69
                      A                      A                      A
 Frequencies --   1500.6921              1508.3556              1509.4309
 Red. masses --      1.1374                 1.0652                 1.0519
 Frc consts  --      1.5092                 1.4279                 1.4120
 IR Inten    --      1.6055                12.0636                 3.7504

                     70                     71                     72
                      A                      A                      A
 Frequencies --   1510.4794              1518.3523              1521.5099
 Red. masses --      1.0891                 1.0647                 1.0857
 Frc consts  --      1.4641                 1.4462                 1.4809
 IR Inten    --      7.3570                 4.3574                15.7504

                     73                     74                     75
                      A                      A                      A
 Frequencies --   1524.1724              1530.4515              1530.7147
 Red. masses --      1.0452                 1.0725                 1.0612
 Frc consts  --      1.4306                 1.4801                 1.4650
 IR Inten    --     12.4378                20.5954                 2.8323

                     76                     77                     78
                      A                      A                      A
 Frequencies --   1542.5060              1643.9023              2991.5148
 Red. masses --      1.0572                 6.6421                 1.0794
 Frc consts  --      1.4821                10.5757                 5.6913
 IR Inten    --     13.4415               310.3775                12.0646

                     79                     80                     81
                      A                      A                      A
 Frequencies --   3022.6963              3023.6492              3039.7208
 Red. masses --      1.0715                 1.0474                 1.0629
 Frc consts  --      5.7680                 5.6421                 5.7864
 IR Inten    --      5.7099                62.0506                31.6455

                     82                     83                     84
                      A                      A                      A
 Frequencies --   3043.0901              3043.9117              3045.7526
 Red. masses --      1.0389                 1.0371                 1.0333
 Frc consts  --      5.6682                 5.6617                 5.6475
 IR Inten    --     66.1247                42.9101                36.3152

                     85                     86                     87
                      A                      A                      A
 Frequencies --   3058.1144              3079.9955              3110.8927
 Red. masses --      1.0838                 1.1060                 1.1007
 Frc consts  --      5.9717                 6.1816                 6.2760
 IR Inten    --     26.4156                67.9695                13.9227

                     88                     89                     90
                      A                      A                      A
 Frequencies --   3113.3730              3117.5666              3129.1950
 Red. masses --      1.1075                 1.1035                 1.0954
 Frc consts  --      6.3249                 6.3192                 6.3197
 IR Inten    --     36.7888                39.8744                36.5327

                     91                     92                     93
                      A                      A                      A
 Frequencies --   3154.6780              3160.3318              3166.8344
 Red. masses --      1.0869                 1.0998                 1.1038
 Frc consts  --      6.3731                 6.4716                 6.5223
 IR Inten    --      1.4587                28.7311                24.1553

                     94                     95                     96
                      A                      A                      A
 Frequencies --   3170.7760              3181.2293              3199.9928
 Red. masses --      1.1065                 1.1022                 1.0935
 Frc consts  --      6.5547                 6.5719                 6.5972
 IR Inten    --     20.8217                16.7442                 0.4434

 - Thermochemistry -
 -------------------
 Temperature   298.150 Kelvin.  Pressure   1.00000 Atm.
 Atom     1 has atomic number  6 and mass  12.00000

 Molecular mass:   219.12325 amu.
 Principal axes and moments of inertia in atomic units:
                           1         2         3
     Eigenvalues --  2184.152924587.785026367.18689
           X            0.99987   0.01509  -0.00482
           Y           -0.01510   0.99988  -0.00184
           Z            0.00479   0.00191   0.99999
 This molecule is an asymmetric top.
 Rotational symmetry number  1.
 Warning -- assumption of classical behavior for rotation
           may cause significant error
 Rotational temperatures (Kelvin)      0.03966     0.01888     0.01360
 Rotational constants (GHZ):           0.82629     0.39338     0.28344
 Zero-point vibrational energy     773251.2 (Joules/Mol)
                                  184.81147 (Kcal/Mol)
 Warning -- explicit consideration of  27 degrees of freedom as
           vibrations may cause significant error
 Vibrational temperatures:     59.01    82.72    99.13   104.53   135.46
          (Kelvin)            155.59   177.28   200.53   217.70   237.58
                              242.88   268.89   306.12   326.30   365.30
                              397.45   422.92   471.39   496.10   519.47
                              591.81   635.94   657.48   747.02   763.09
                              829.86   859.58  1027.42  1046.82  1219.92
                             1345.34  1368.97  1387.69  1414.29  1490.19
                             1524.47  1558.78  1567.13  1588.48  1624.38
                             1640.72  1658.11  1663.82  1692.10  1703.61
                             1707.07  1711.65  1716.93  1747.78  1761.81
                             1766.82  1774.81  1803.99  1836.36  1892.76
                             1901.93  1946.90  1963.94  1991.36  2026.68
                             2051.59  2071.50  2073.72  2146.20  2151.86
                             2155.85  2159.16  2170.19  2171.73  2173.24
                             2184.57  2189.11  2192.94  2201.98  2202.36
                             2219.32  2365.21  4304.12  4348.99  4350.36
                             4373.48  4378.33  4379.51  4382.16  4399.94
                             4431.43  4475.88  4479.45  4485.48  4502.21
                             4538.88  4547.01  4556.37  4562.04  4577.08
                             4604.08

 Zero-point correction=                           0.294516 (Hartree/Particle)
 Thermal correction to Energy=                    0.311954
 Thermal correction to Enthalpy=                  0.312899
 Thermal correction to Gibbs Free Energy=         0.248968
 Sum of electronic and zero-point Energies=           -768.036699
 Sum of electronic and thermal Energies=              -768.019261
 Sum of electronic and thermal Enthalpies=            -768.018317
 Sum of electronic and thermal Free Energies=         -768.082247

                     E (Thermal)             CV                S
                      KCal/Mol        Cal/Mol-Kelvin    Cal/Mol-Kelvin
 Total                  195.754             61.837            134.553
 Electronic               0.000              0.000              0.000
 Translational            0.889              2.981             42.056
 Rotational               0.889              2.981             32.523
 Vibrational            193.977             55.875             59.974
 Vibration     1          0.594              1.981              5.210
 Vibration     2          0.596              1.975              4.541
 Vibration     3          0.598              1.969              4.185
 Vibration     4          0.599              1.967              4.080
 Vibration     5          0.603              1.953              3.572
 Vibration     6          0.606              1.943              3.302
 Vibration     7          0.610              1.930              3.049
 Vibration     8          0.615              1.914              2.812
 Vibration     9          0.619              1.901              2.656
 Vibration    10          0.624              1.885              2.490
 Vibration    11          0.625              1.881              2.449
 Vibration    12          0.632              1.858              2.258
 Vibration    13          0.644              1.821              2.020
 Vibration    14          0.650              1.800              1.904
 Vibration    15          0.665              1.756              1.703
 Vibration    16          0.678              1.717              1.557
 Vibration    17          0.689              1.685              1.451
 Vibration    18          0.711              1.620              1.272
 Vibration    19          0.723              1.586              1.190
 Vibration    20          0.735              1.552              1.118
 Vibration    21          0.775              1.446              0.922
 Vibration    22          0.802              1.379              0.820
 Vibration    23          0.815              1.345              0.775
 Vibration    24          0.874              1.207              0.612
 Vibration    25          0.885              1.183              0.586
 Vibration    26          0.933              1.081              0.491
 Vibration    27          0.955              1.037              0.454

 Optimization completed.
    -- Stationary point found.
 Normal termination of Gaussian 16 at Fri May 24 09:36:07 2019.
