 Gaussian 16, Revision A.03,
 Gaussian 16:  ES64L-G16RevA.03 25-Dec-2016

 ----------------------------------------------------------------------
 #p b3lyp 6-31g* opt=(maxstep=1,calcfc) freq=noraman scrf=(pcm,solvent=
 tetrahydrofuran)
 ----------------------------------------------------------------------

 -----
 title
 -----
 Symbolic Z-matrix:
 Charge =  1 Multiplicity = 1

 SCF Done:  E(RB3LYP) =  -768.321954670     A.U. after   14 cycles
 Optimization completed.
    -- Stationary point found.
 Normal termination of Gaussian 16 at Sat May 25 18:24:06 2019.

 --------------------------------------------------------------------
 #P Geom=AllCheck Guess=TCheck SCRF=Check GenChk RB3LYP/6-31G(d) Freq
 --------------------------------------------------------------------

 Structure from the checkpoint file:  "/scratch/Gau-191023.chk"
 -----
 title
 -----
 Charge =  1 Multiplicity = 1

                         Standard orientation:
 ---------------------------------------------------------------------
 Center     Atomic      Atomic             Coordinates (Angstroms)
 Number     Number       Type             X           Y           Z
 ---------------------------------------------------------------------
      1          6           0       -1.041335    0.464074   -0.353144
      2          6           0       -1.720072   -0.698025    0.436629
      3          6           0       -1.095511   -1.988958    0.040414
      4          6           0        1.095020   -0.981032   -0.324794
      5          6           0        0.481630    0.415829   -0.090198
      6          1           0       -1.679360   -2.911122    0.014371
      7          1           0       -1.443134   -0.585896    1.501637
      8          1           0       -1.194220    0.313081   -1.426905
      9          1           0        1.445638   -1.041965   -1.355100
     10          1           0        0.688926    0.719592    0.944377
     11          8           0        0.112873   -2.122081   -0.276639
     12          8           0       -3.113671   -0.766491    0.422788
     13          8           0       -1.623743    1.712392   -0.084561
     14          8           0        1.170879    1.249076   -0.999035
     15          6           0        2.190232   -1.379934    0.689011
     16          1           0        2.640952   -2.333440    0.381937
     17          1           0        1.724938   -1.513804    1.671082
     18          8           0        3.144913   -0.361169    0.825799
     19          6           0       -3.744529   -0.663472   -0.865006
     20          1           0       -3.376129   -1.430126   -1.558951
     21          1           0       -4.805711   -0.832506   -0.681339
     22          1           0       -3.600462    0.331696   -1.294766
     23          6           0       -1.802687    2.091442    1.284306
     24          1           0       -0.860845    2.097833    1.844864
     25          1           0       -2.199577    3.107097    1.254618
     26          1           0       -2.529428    1.440487    1.783894
     27          6           0        1.492681    2.554668   -0.508610
     28          1           0        0.589541    3.145082   -0.326087
     29          1           0        2.090712    2.487174    0.408507
     30          1           0        2.085441    3.030721   -1.291820
     31          6           0        4.108858   -0.299233   -0.228316
     32          1           0        4.579224   -1.278588   -0.386502
     33          1           0        3.661396    0.051007   -1.165936
     34          1           0        4.866377    0.417703    0.093543
 ---------------------------------------------------------------------

 SCF Done:  E(RB3LYP) =  -768.321954670     A.U. after    1 cycles

 The electronic state is 1-A.
 Alpha  occ. eigenvalues --  -19.33392 -19.20970 -19.19864 -19.19130 -19.18982
 Alpha  occ. eigenvalues --  -10.39909 -10.32196 -10.32066 -10.29869 -10.29599
 Alpha  occ. eigenvalues --  -10.28153 -10.26020 -10.25496 -10.24729 -10.24717
 Alpha  occ. eigenvalues --   -1.22020  -1.09934  -1.08166  -1.07093  -1.06383
 Alpha  occ. eigenvalues --   -0.87177  -0.85996  -0.77744  -0.75148  -0.74575
 Alpha  occ. eigenvalues --   -0.71673  -0.69464  -0.67485  -0.65504  -0.62529
 Alpha  occ. eigenvalues --   -0.60523  -0.59121  -0.55779  -0.54905  -0.54167
 Alpha  occ. eigenvalues --   -0.52623  -0.51978  -0.50942  -0.50473  -0.49035
 Alpha  occ. eigenvalues --   -0.48672  -0.47692  -0.46535  -0.45868  -0.45251
 Alpha  occ. eigenvalues --   -0.44508  -0.43600  -0.42383  -0.41965  -0.40680
 Alpha  occ. eigenvalues --   -0.39871  -0.37198  -0.36012  -0.35087  -0.34768
 Alpha  occ. eigenvalues --   -0.32682  -0.31281  -0.29755  -0.27892
 Alpha virt. eigenvalues --   -0.15475  -0.00711   0.03955   0.05015   0.06370
 Alpha virt. eigenvalues --    0.07113   0.07662   0.08276   0.09677   0.10188
 Alpha virt. eigenvalues --    0.11477   0.11667   0.11890   0.13040   0.13191

 Mulliken charges:
               1
     1  C    0.113543
     2  C    0.011789
     3  C    0.285252
     4  C    0.048580
     5  C    0.097038
     6  H    0.283203
     7  H    0.252369
     8  H    0.194076
     9  H    0.244494
    10  H    0.180934
    11  O   -0.306356
    12  O   -0.470143
    13  O   -0.471765
    14  O   -0.487444
    15  C   -0.045237
    16  H    0.180911
    17  H    0.185886
    18  O   -0.460736
    19  C   -0.243745
    20  H    0.163698
    21  H    0.198304
    22  H    0.187765
    23  C   -0.248309
    24  H    0.165411
    25  H    0.194255
    26  H    0.176279
    27  C   -0.227146
    28  H    0.170985
    29  H    0.165404
    30  H    0.180956
    31  C   -0.226761
    32  H    0.160098
    33  H    0.164163
    34  H    0.182250
 Sum of Mulliken charges =   1.00000

 Dipole moment (field-independent basis, Debye):
    X=             -1.4139    Y=             -4.9157    Z=              0.1584  Tot=              5.1175
 Quadrupole moment (field-independent basis, Debye-Ang):
   XX=            -65.8562   YY=            -67.5663   ZZ=            -83.8367
   XY=              4.5166   XZ=             -1.0124   YZ=              4.3761

  Exact polarizability: 171.965   4.509 151.276  -4.805   2.965 114.970
 Approx polarizability: 180.894   2.619 173.591  -7.453   3.491 146.210

                      1                      2                      3
                      A                      A                      A
 Frequencies --     37.4486                62.3371                76.2955
 Red. masses --      3.7773                 4.0618                 3.0519
 Frc consts  --      0.0031                 0.0093                 0.0105
 IR Inten    --      0.7193                 1.0597                 3.9155

                      4                      5                      6
                      A                      A                      A
 Frequencies --     92.1814               112.8571               128.4452
 Red. masses --      2.7511                 2.7281                 2.0716
 Frc consts  --      0.0138                 0.0205                 0.0201
 IR Inten    --      5.3786                 0.9585                 3.9735

                      7                      8                      9
                      A                      A                      A
 Frequencies --    134.3335               159.1904               174.9785
 Red. masses --      1.8505                 2.1425                 1.5336
 Frc consts  --      0.0197                 0.0320                 0.0277
 IR Inten    --      4.5805                 5.1683                 1.9785

                     10                     11                     12
                      A                      A                      A
 Frequencies --    177.4489               186.7258               209.3091
 Red. masses --      1.7122                 1.3442                 2.1164
 Frc consts  --      0.0318                 0.0276                 0.0546
 IR Inten    --      0.3955                 3.7223                14.7251

                     13                     14                     15
                      A                      A                      A
 Frequencies --    217.4896               233.2390               260.6769
 Red. masses --      1.5292                 3.0183                 3.2436
 Frc consts  --      0.0426                 0.0967                 0.1299
 IR Inten    --      4.9850                 0.1651                 5.4878

                     16                     17                     18
                      A                      A                      A
 Frequencies --    288.2813               304.4473               339.8521
 Red. masses --      3.9075                 4.0375                 4.4171
 Frc consts  --      0.1913                 0.2205                 0.3006
 IR Inten    --     13.1348                 2.6131                 8.8365

                     19                     20                     21
                      A                      A                      A
 Frequencies --    358.0591               408.1530               420.2060
 Red. masses --      4.3623                 4.4166                 3.4430
 Frc consts  --      0.3295                 0.4335                 0.3582
 IR Inten    --      7.7305                 5.2542                21.2211

                     22                     23                     24
                      A                      A                      A
 Frequencies --    436.2815               477.0796               521.0117
 Red. masses --      3.3731                 3.6454                 4.0478
 Frc consts  --      0.3783                 0.4889                 0.6474
 IR Inten    --     22.4756                 8.9850                15.0091

                     25                     26                     27
                      A                      A                      A
 Frequencies --    534.5717               557.7292               599.5396
 Red. masses --      3.4360                 4.1494                 2.7732
 Frc consts  --      0.5785                 0.7605                 0.5873
 IR Inten    --     17.9387                13.0080                21.0848

                     28                     29                     30
                      A                      A                      A
 Frequencies --    711.1065               799.2599               826.9687
 Red. masses --      4.4278                 5.8755                 2.4037
 Frc consts  --      1.3192                 2.2114                 0.9685
 IR Inten    --     82.4512                33.9628                13.4279

                     31                     32                     33
                      A                      A                      A
 Frequencies --    922.7569               931.8282               950.3285
 Red. masses --      2.6079                 3.9495                 3.6248
 Frc consts  --      1.3083                 2.0205                 1.9288
 IR Inten    --      8.6133                81.4351                20.3203

                     34                     35                     36
                      A                      A                      A
 Frequencies --    962.3441               989.9224              1045.5318
 Red. masses --      3.0871                 4.3482                 4.4361
 Frc consts  --      1.6844                 2.5105                 2.8571
 IR Inten    --      8.8716                26.7386                73.8197

                     37                     38                     39
                      A                      A                      A
 Frequencies --   1063.6192              1079.4455              1108.0123
 Red. masses --      3.2872                 2.3993                 2.6940
 Frc consts  --      2.1910                 1.6472                 1.9487
 IR Inten    --     72.0207                13.3417                25.0368

                     40                     41                     42
                      A                      A                      A
 Frequencies --   1134.4729              1144.2857              1148.5377
 Red. masses --      2.8769                 3.3615                 3.3502
 Frc consts  --      2.1816                 2.5933                 2.6038
 IR Inten    --     58.4031               229.4840               135.0704

                     43                     44                     45
                      A                      A                      A
 Frequencies --   1164.7389              1178.6239              1181.5876
 Red. masses --      2.9842                 2.3896                 1.2612
 Frc consts  --      2.3852                 1.9558                 1.0374
 IR Inten    --     55.5535                90.7472                 2.0276

                     46                     47                     48
                      A                      A                      A
 Frequencies --   1187.0375              1189.6209              1191.2537
 Red. masses --      1.5699                 1.3103                 1.2949
 Frc consts  --      1.3033                 1.0925                 1.0827
 IR Inten    --     23.4734                14.5194                 5.7440

                     49                     50                     51
                      A                      A                      A
 Frequencies --   1225.3395              1226.7030              1231.8500
 Red. masses --      1.6821                 1.6893                 1.6424
 Frc consts  --      1.4880                 1.4977                 1.4684
 IR Inten    --    124.1054                61.7433                26.9280

                     52                     53                     54
                      A                      A                      A
 Frequencies --   1238.7919              1255.0305              1289.6035
 Red. masses --      1.7116                 1.6186                 1.3517
 Frc consts  --      1.5475                 1.5021                 1.3245
 IR Inten    --     66.3073                13.8677                63.7379

                     55                     56                     57
                      A                      A                      A
 Frequencies --   1321.2991              1328.9480              1346.7101
 Red. masses --      1.3394                 1.1617                 1.2117
 Frc consts  --      1.3777                 1.2088                 1.2948
 IR Inten    --      9.3378                23.7771                 2.4109

                     58                     59                     60
                      A                      A                      A
 Frequencies --   1360.6448              1376.2162              1401.8957
 Red. masses --      1.2154                 1.2994                 1.3792
 Frc consts  --      1.3257                 1.4500                 1.5970
 IR Inten    --      6.1891                 3.1501                34.3853

                     61                     62                     63
                      A                      A                      A
 Frequencies --   1421.3789              1441.3383              1452.0081
 Red. masses --      1.3553                 1.1965                 1.1890
 Frc consts  --      1.6133                 1.4645                 1.4770
 IR Inten    --      0.6434                21.4855                13.3287

                     64                     65                     66
                      A                      A                      A
 Frequencies --   1493.9166              1497.1465              1498.5803
 Red. masses --      1.1553                 1.1417                 1.1127
 Frc consts  --      1.5191                 1.5078                 1.4723
 IR Inten    --      1.2141                 0.4777                 2.3159

                     67                     68                     69
                      A                      A                      A
 Frequencies --   1505.8512              1512.1838              1512.5299
 Red. masses --      1.1294                 1.0603                 1.0495
 Frc consts  --      1.5089                 1.4285                 1.4147
 IR Inten    --      0.6771                12.8282                 6.6861

                     70                     71                     72
                      A                      A                      A
 Frequencies --   1516.0008              1519.2097              1527.4516
 Red. masses --      1.0770                 1.0489                 1.0504
 Frc consts  --      1.4584                 1.4264                 1.4439
 IR Inten    --      4.5048                 6.8799                12.0906

                     73                     74                     75
                      A                      A                      A
 Frequencies --   1528.4059              1530.9131              1537.6657
 Red. masses --      1.0494                 1.0483                 1.0552
 Frc consts  --      1.4443                 1.4475                 1.4700
 IR Inten    --      7.3934                13.2930                21.1527

                     76                     77                     78
                      A                      A                      A
 Frequencies --   1539.0818              1642.3959              2979.5438
 Red. masses --      1.0885                 6.8768                 1.0778
 Frc consts  --      1.5192                10.9292                 5.6374
 IR Inten    --      9.7325               229.4399                26.4169

                     79                     80                     81
                      A                      A                      A
 Frequencies --   3034.6578              3043.3361              3045.4939
 Red. masses --      1.0353                 1.0581                 1.0396
 Frc consts  --      5.6173                 5.7742                 5.6813
 IR Inten    --     47.4487                33.0750                38.4559

                     82                     83                     84
                      A                      A                      A
 Frequencies --   3046.7896              3048.5802              3051.7569
 Red. masses --      1.0349                 1.0643                 1.0575
 Frc consts  --      5.6603                 5.8276                 5.8027
 IR Inten    --     17.8175                46.5113                54.1489

                     85                     86                     87
                      A                      A                      A
 Frequencies --   3101.6433              3106.2406              3113.8893
 Red. masses --      1.1054                 1.0854                 1.1071
 Frc consts  --      6.2656                 6.1702                 6.3246
 IR Inten    --     47.0933                 8.9375                47.7812

                     88                     89                     90
                      A                      A                      A
 Frequencies --   3122.7474              3127.5639              3129.2407
 Red. masses --      1.1038                 1.0979                 1.0989
 Frc consts  --      6.3418                 6.3275                 6.3399
 IR Inten    --     34.8262                20.1508                31.2538

                     91                     92                     93
                      A                      A                      A
 Frequencies --   3160.8460              3163.1688              3165.0106
 Red. masses --      1.0996                 1.0904                 1.1040
 Frc consts  --      6.4726                 6.4278                 6.5160
 IR Inten    --     20.0696                 6.1473                23.7992

                     94                     95                     96
                      A                      A                      A
 Frequencies --   3169.8592              3182.7441              3198.5537
 Red. masses --      1.1013                 1.1038                 1.0938
 Frc consts  --      6.5199                 6.5877                 6.5934
 IR Inten    --     17.5703                15.4826                 3.2742

 - Thermochemistry -
 -------------------
 Temperature   298.150 Kelvin.  Pressure   1.00000 Atm.
 Atom     1 has atomic number  6 and mass  12.00000

 Molecular mass:   219.12325 amu.
 Principal axes and moments of inertia in atomic units:
                           1         2         3
     Eigenvalues --  1965.456904281.648765528.14934
           X            1.00000   0.00115  -0.00117
           Y           -0.00113   0.99982   0.01868
           Z            0.00119  -0.01867   0.99982
 This molecule is an asymmetric top.
 Rotational symmetry number  1.
 Warning -- assumption of classical behavior for rotation
           may cause significant error
 Rotational temperatures (Kelvin)      0.04407     0.02023     0.01567
 Rotational constants (GHZ):           0.91823     0.42151     0.32646
 Zero-point vibrational energy     775719.7 (Joules/Mol)
                                  185.40146 (Kcal/Mol)
 Warning -- explicit consideration of  27 degrees of freedom as
           vibrations may cause significant error
 Vibrational temperatures:     53.88    89.69   109.77   132.63   162.38
          (Kelvin)            184.80   193.28   229.04   251.76   255.31
                              268.66   301.15   312.92   335.58   375.06
                              414.77   438.03   488.97   515.17   587.24
                              604.58   627.71   686.41   749.62   769.13
                              802.45   862.60  1023.12  1149.96  1189.82
                             1327.64  1340.69  1367.31  1384.60  1424.28
                             1504.29  1530.31  1553.08  1594.18  1632.25
                             1646.37  1652.49  1675.80  1695.78  1700.04
                             1707.88  1711.60  1713.95  1762.99  1764.95
                             1772.36  1782.35  1805.71  1855.45  1901.05
                             1912.06  1937.62  1957.66  1980.07  2017.02
                             2045.05  2073.76  2089.12  2149.41  2154.06
                             2156.12  2166.58  2175.70  2176.19  2181.19
                             2185.80  2197.66  2199.04  2202.64  2212.36
                             2214.40  2363.04  4286.90  4366.20  4378.68
                             4381.79  4383.65  4386.23  4390.80  4462.57
                             4469.19  4480.19  4492.94  4499.87  4502.28
                             4547.75  4551.09  4553.74  4560.72  4579.26
                             4602.01

 Zero-point correction=                           0.295456 (Hartree/Particle)
 Thermal correction to Energy=                    0.312443
 Thermal correction to Enthalpy=                  0.313387
 Thermal correction to Gibbs Free Energy=         0.251116
 Sum of electronic and zero-point Energies=           -768.026499
 Sum of electronic and thermal Energies=              -768.009512
 Sum of electronic and thermal Enthalpies=            -768.008568
 Sum of electronic and thermal Free Energies=         -768.070839

                     E (Thermal)             CV                S
                      KCal/Mol        Cal/Mol-Kelvin    Cal/Mol-Kelvin
 Total                  196.061             61.450            131.060
 Electronic               0.000              0.000              0.000
 Translational            0.889              2.981             42.056
 Rotational               0.889              2.981             32.209
 Vibrational            194.283             55.488             56.795
 Vibration     1          0.594              1.982              5.390
 Vibration     2          0.597              1.972              4.382
 Vibration     3          0.599              1.965              3.984
 Vibration     4          0.602              1.955              3.613
 Vibration     5          0.607              1.939              3.219
 Vibration     6          0.611              1.925              2.969
 Vibration     7          0.613              1.919              2.883
 Vibration     8          0.621              1.892              2.559
 Vibration     9          0.627              1.873              2.381
 Vibration    10          0.628              1.870              2.355
 Vibration    11          0.632              1.858              2.260
 Vibration    12          0.642              1.827              2.050
 Vibration    13          0.646              1.814              1.980
 Vibration    14          0.654              1.790              1.854
 Vibration    15          0.669              1.745              1.657
 Vibration    16          0.685              1.695              1.484
 Vibration    17          0.695              1.665              1.392
 Vibration    18          0.720              1.596              1.213
 Vibration    19          0.733              1.559              1.131
 Vibration    20          0.773              1.453              0.933
 Vibration    21          0.783              1.426              0.891
 Vibration    22          0.797              1.391              0.838
 Vibration    23          0.834              1.301              0.718
 Vibration    24          0.876              1.203              0.608
 Vibration    25          0.890              1.174              0.577
 Vibration    26          0.913              1.123              0.528
 Vibration    27          0.958              1.033              0.450

 Optimization completed.
    -- Stationary point found.
 Normal termination of Gaussian 16 at Sat May 25 18:43:38 2019.
