 Gaussian 16, Revision A.03,
 Gaussian 16:  ES64L-G16RevA.03 25-Dec-2016

 -------------------------------------------------------------------
 #p b3lyp 6-31g* opt freq=noraman scrf=(pcm,solvent=tetrahydrofuran)
 -------------------------------------------------------------------

 -----
 title
 -----
 Symbolic Z-matrix:
 Charge =  1 Multiplicity = 1

 SCF Done:  E(RB3LYP) =  -768.323608988     A.U. after   14 cycles
 Optimization completed.
    -- Stationary point found.
 Normal termination of Gaussian 16 at Fri May 24 08:35:04 2019.

 --------------------------------------------------------------------
 #P Geom=AllCheck Guess=TCheck SCRF=Check GenChk RB3LYP/6-31G(d) Freq
 --------------------------------------------------------------------

 Structure from the checkpoint file:  "/scratch/Gau-130642.chk"
 -----
 title
 -----
 Charge =  1 Multiplicity = 1

                         Standard orientation:
 ---------------------------------------------------------------------
 Center     Atomic      Atomic             Coordinates (Angstroms)
 Number     Number       Type             X           Y           Z
 ---------------------------------------------------------------------
      1          6           0       -1.123513    0.340365   -0.492580
      2          6           0       -1.519848   -1.037237    0.105124
      3          6           0       -0.379828   -1.995842    0.097831
      4          6           0        1.339453   -0.281279   -0.150202
      5          6           0        0.253878    0.791461    0.044688
      6          1           0       -0.583710   -3.066462    0.148163
      7          1           0       -1.752394   -0.922934    1.182860
      8          1           0       -1.029758    0.205429   -1.574641
      9          1           0        1.664950   -0.286274   -1.191860
     10          1           0        0.185016    1.040430    1.113457
     11          8           0        0.833837   -1.693054    0.018806
     12          8           0       -2.557001   -1.673848   -0.589162
     13          8           0       -2.143569    1.303258   -0.349734
     14          8           0        0.766910    1.880949   -0.692888
     15          6           0        2.519152   -0.153508    0.812988
     16          1           0        2.172249   -0.352415    1.832653
     17          1           0        2.853566    0.892479    0.762655
     18          8           0        3.554023   -1.060938    0.535103
     19          6           0       -3.869482   -1.542664   -0.023406
     20          1           0       -4.515025   -2.187029   -0.621283
     21          1           0       -3.884601   -1.880544    1.020096
     22          1           0       -4.220070   -0.508507   -0.092080
     23          6           0       -2.529949    1.704196    0.967375
     24          1           0       -2.930944    0.870535    1.556885
     25          1           0       -1.710502    2.173572    1.521645
     26          1           0       -3.323673    2.438913    0.824491
     27          6           0        0.476617    3.186689   -0.185551
     28          1           0        0.761640    3.272076    0.871309
     29          1           0       -0.581599    3.435560   -0.307892
     30          1           0        1.081582    3.877341   -0.775688
     31          6           0        4.490182   -0.604305   -0.439275
     32          1           0        4.972129    0.327608   -0.114626
     33          1           0        5.243996   -1.387893   -0.535006
     34          1           0        4.023575   -0.440068   -1.420087
 ---------------------------------------------------------------------

 SCF Done:  E(RB3LYP) =  -768.323608988     A.U. after    1 cycles

 The electronic state is 1-A.
 Alpha  occ. eigenvalues --  -19.33070 -19.20859 -19.19838 -19.19538 -19.18380
 Alpha  occ. eigenvalues --  -10.39737 -10.32043 -10.32031 -10.29976 -10.29568
 Alpha  occ. eigenvalues --  -10.27903 -10.25911 -10.25816 -10.25192 -10.24740
 Alpha  occ. eigenvalues --   -1.21781  -1.09736  -1.08308  -1.06771  -1.06564
 Alpha  occ. eigenvalues --   -0.87325  -0.86005  -0.77633  -0.75283  -0.74286
 Alpha  occ. eigenvalues --   -0.71514  -0.69511  -0.68098  -0.65155  -0.62664
 Alpha  occ. eigenvalues --   -0.60741  -0.58902  -0.55763  -0.54955  -0.53850
 Alpha  occ. eigenvalues --   -0.52965  -0.51383  -0.50914  -0.50695  -0.49421
 Alpha  occ. eigenvalues --   -0.48601  -0.47841  -0.46644  -0.45811  -0.45490
 Alpha  occ. eigenvalues --   -0.44677  -0.43271  -0.42192  -0.41826  -0.40641
 Alpha  occ. eigenvalues --   -0.40185  -0.37161  -0.36001  -0.35540  -0.34751
 Alpha  occ. eigenvalues --   -0.32712  -0.31442  -0.29563  -0.27872
 Alpha virt. eigenvalues --   -0.15213   0.00146   0.04402   0.04918   0.06126
 Alpha virt. eigenvalues --    0.07060   0.07658   0.08410   0.09225   0.10579
 Alpha virt. eigenvalues --    0.10683   0.11508   0.11933   0.12339   0.12831

 Mulliken charges:
               1
     1  C    0.142122
     2  C    0.017363
     3  C    0.304523
     4  C    0.062849
     5  C    0.064885
     6  H    0.279746
     7  H    0.231720
     8  H    0.196593
     9  H    0.242393
    10  H    0.174788
    11  O   -0.302081
    12  O   -0.474265
    13  O   -0.478877
    14  O   -0.482767
    15  C   -0.047406
    16  H    0.187038
    17  H    0.187374
    18  O   -0.467688
    19  C   -0.232888
    20  H    0.194257
    21  H    0.170624
    22  H    0.182955
    23  C   -0.243819
    24  H    0.159502
    25  H    0.165749
    26  H    0.196587
    27  C   -0.227662
    28  H    0.161713
    29  H    0.175924
    30  H    0.185232
    31  C   -0.225160
    32  H    0.161402
    33  H    0.182225
    34  H    0.155051
 Sum of Mulliken charges =   1.00000

 Dipole moment (field-independent basis, Debye):
    X=             -1.7973    Y=             -1.7701    Z=              3.1110  Tot=              4.0053
 Quadrupole moment (field-independent basis, Debye-Ang):
   XX=            -62.7402   YY=            -69.8264   ZZ=            -84.6264
   XY=              8.0677   XZ=            -10.3662   YZ=              3.3166

  Exact polarizability: 174.654   2.398 150.355  -5.337   1.735 113.824
 Approx polarizability: 183.022  -1.778 168.484  -4.485  -0.286 143.642

                      1                      2                      3
                      A                      A                      A
 Frequencies --     46.1086                59.9801                72.4244
 Red. masses --      4.0074                 3.2670                 3.4580
 Frc consts  --      0.0050                 0.0069                 0.0107
 IR Inten    --      2.8586                 1.2744                 1.8829

                      4                      5                      6
                      A                      A                      A
 Frequencies --     87.6086                92.4925                99.2296
 Red. masses --      2.7693                 2.7995                 2.0625
 Frc consts  --      0.0125                 0.0141                 0.0120
 IR Inten    --      8.4315                 2.8264                 4.3832

                      7                      8                      9
                      A                      A                      A
 Frequencies --    119.2713               142.2696               165.7494
 Red. masses --      1.2871                 1.6731                 3.0459
 Frc consts  --      0.0108                 0.0200                 0.0493
 IR Inten    --      4.9057                 0.4013                 1.0813

                     10                     11                     12
                      A                      A                      A
 Frequencies --    177.3144               201.0022               216.8332
 Red. masses --      2.2460                 1.3134                 1.2644
 Frc consts  --      0.0416                 0.0313                 0.0350
 IR Inten    --      2.9548                 3.2148                 0.4594

                     13                     14                     15
                      A                      A                      A
 Frequencies --    223.9197               233.9113               260.4661
 Red. masses --      2.6596                 2.9461                 3.0415
 Frc consts  --      0.0786                 0.0950                 0.1216
 IR Inten    --     11.0308                 8.8141                 4.2570

                     16                     17                     18
                      A                      A                      A
 Frequencies --    282.1234               283.8278               312.3071
 Red. masses --      4.3136                 3.8315                 4.7836
 Frc consts  --      0.2023                 0.1819                 0.2749
 IR Inten    --     10.8073                 0.8417                 5.2477

                     19                     20                     21
                      A                      A                      A
 Frequencies --    349.1474               380.8827               421.8785
 Red. masses --      3.4011                 4.4069                 4.1420
 Frc consts  --      0.2443                 0.3767                 0.4343
 IR Inten    --      0.4674                 4.1770                 5.2270

                     22                     23                     24
                      A                      A                      A
 Frequencies --    446.9264               461.2682               509.2293
 Red. masses --      2.7665                 3.5226                 3.4719
 Frc consts  --      0.3256                 0.4416                 0.5304
 IR Inten    --      9.9817                 7.6436                16.0752

                     25                     26                     27
                      A                      A                      A
 Frequencies --    553.8140               561.5894               617.3037
 Red. masses --      3.7225                 3.3598                 3.7621
 Frc consts  --      0.6727                 0.6243                 0.8446
 IR Inten    --     30.3334                 9.0023                29.2410

                     28                     29                     30
                      A                      A                      A
 Frequencies --    716.9390               741.7106               846.7156
 Red. masses --      4.2148                 3.7876                 2.0425
 Frc consts  --      1.2764                 1.2277                 0.8627
 IR Inten    --     51.7830                89.2797                 3.1368

                     31                     32                     33
                      A                      A                      A
 Frequencies --    925.8669               940.5125               960.5502
 Red. masses --      5.1781                 3.4239                 3.9016
 Frc consts  --      2.6153                 1.7844                 2.1210
 IR Inten    --     31.4216                27.6405                14.5329

                     34                     35                     36
                      A                      A                      A
 Frequencies --    975.2540              1017.5727              1054.7187
 Red. masses --      4.0547                 4.5616                 2.5286
 Frc consts  --      2.2722                 2.7829                 1.6573
 IR Inten    --     68.0502                14.4592                37.0599

                     37                     38                     39
                      A                      A                      A
 Frequencies --   1073.6099              1094.5461              1097.5620
 Red. masses --      2.6566                 3.2212                 3.2108
 Frc consts  --      1.8041                 2.2737                 2.2789
 IR Inten    --      5.4224                62.4274                27.7404

                     40                     41                     42
                      A                      A                      A
 Frequencies --   1128.6019              1143.6188              1151.5355
 Red. masses --      2.5243                 3.6890                 3.6030
 Frc consts  --      1.8944                 2.8426                 2.8149
 IR Inten    --     66.5481               256.4650               214.7916

                     43                     44                     45
                      A                      A                      A
 Frequencies --   1161.2801              1172.2044              1177.5245
 Red. masses --      4.6229                 1.5709                 2.0958
 Frc consts  --      3.6731                 1.2718                 1.7121
 IR Inten    --      8.4358                81.7694                92.1854

                     46                     47                     48
                      A                      A                      A
 Frequencies --   1179.5923              1184.6689              1187.4887
 Red. masses --      1.3885                 1.2851                 1.3020
 Frc consts  --      1.1383                 1.0627                 1.0817
 IR Inten    --     28.8051                 1.7680                11.8887

                     49                     50                     51
                      A                      A                      A
 Frequencies --   1216.2959              1226.7192              1229.1462
 Red. masses --      1.4474                 1.6648                 1.7277
 Frc consts  --      1.2616                 1.4761                 1.5379
 IR Inten    --     61.8373                78.2983                71.8764

                     52                     53                     54
                      A                      A                      A
 Frequencies --   1230.8293              1252.7750              1292.3550
 Red. masses --      1.6297                 1.4382                 1.3749
 Frc consts  --      1.4546                 1.3298                 1.3529
 IR Inten    --     24.9242                 8.6892                33.3209

                     55                     56                     57
                      A                      A                      A
 Frequencies --   1320.5451              1330.6092              1346.0308
 Red. masses --      1.3065                 1.3193                 1.1738
 Frc consts  --      1.3423                 1.3763                 1.2530
 IR Inten    --     22.9517                18.1896                62.1196

                     58                     59                     60
                      A                      A                      A
 Frequencies --   1367.4703              1405.6400              1410.0760
 Red. masses --      1.2360                 1.3254                 1.2992
 Frc consts  --      1.3617                 1.5429                 1.5219
 IR Inten    --      2.3182                 0.9170                14.7667

                     61                     62                     63
                      A                      A                      A
 Frequencies --   1429.1278              1430.7476              1467.9502
 Red. masses --      1.3337                 1.2537                 1.1727
 Frc consts  --      1.6050                 1.5121                 1.4889
 IR Inten    --     37.7813                18.3785                44.1195

                     64                     65                     66
                      A                      A                      A
 Frequencies --   1493.1748              1496.1004              1499.4700
 Red. masses --      1.1022                 1.1518                 1.1507
 Frc consts  --      1.4479                 1.5190                 1.5243
 IR Inten    --      0.8874                 0.8302                 2.6291

                     67                     68                     69
                      A                      A                      A
 Frequencies --   1501.8048              1511.0766              1511.3433
 Red. masses --      1.1172                 1.0750                 1.0546
 Frc consts  --      1.4846                 1.4461                 1.4193
 IR Inten    --      0.0770                21.4372                 3.9742

                     70                     71                     72
                      A                      A                      A
 Frequencies --   1513.2579              1515.4363              1520.3699
 Red. masses --      1.0606                 1.0813                 1.0514
 Frc consts  --      1.4309                 1.4631                 1.4319
 IR Inten    --      4.9289                 3.2183                14.5564

                     73                     74                     75
                      A                      A                      A
 Frequencies --   1522.9480              1529.6486              1531.9927
 Red. masses --      1.0571                 1.0803                 1.0491
 Frc consts  --      1.4446                 1.4893                 1.4507
 IR Inten    --     15.3589                 9.9873                15.8990

                     76                     77                     78
                      A                      A                      A
 Frequencies --   1541.9084              1655.9761              2956.7124
 Red. masses --      1.0547                 7.0685                 1.0762
 Frc consts  --      1.4775                11.4205                 5.5435
 IR Inten    --      6.9742               305.8542                21.1899

                     79                     80                     81
                      A                      A                      A
 Frequencies --   3024.1948              3028.7884              3039.5771
 Red. masses --      1.0353                 1.0820                 1.0388
 Frc consts  --      5.5789                 5.8481                 5.6548
 IR Inten    --     58.5512                14.2991                56.6477

                     82                     83                     84
                      A                      A                      A
 Frequencies --   3044.0192              3048.1307              3051.7641
 Red. masses --      1.0630                 1.0368                 1.0347
 Frc consts  --      5.8035                 5.6755                 5.6776
 IR Inten    --     16.5126                38.7500                62.1160

                     85                     86                     87
                      A                      A                      A
 Frequencies --   3081.0070              3100.4176              3111.7450
 Red. masses --      1.1061                 1.0867                 1.1030
 Frc consts  --      6.1865                 6.1545                 6.2927
 IR Inten    --     66.7130                10.3338                64.4761

                     88                     89                     90
                      A                      A                      A
 Frequencies --   3115.8726              3120.8030              3129.2945
 Red. masses --      1.0990                 1.0992                 1.1043
 Frc consts  --      6.2863                 6.3078                 6.3711
 IR Inten    --     13.7244                39.3622                27.2724

                     91                     92                     93
                      A                      A                      A
 Frequencies --   3149.8861              3160.0152              3165.4473
 Red. masses --      1.0875                 1.0999                 1.1040
 Frc consts  --      6.3574                 6.4713                 6.5178
 IR Inten    --      1.9717                28.0686                23.5529

                     94                     95                     96
                      A                      A                      A
 Frequencies --   3169.5705              3178.2318              3203.3108
 Red. masses --      1.1015                 1.1036                 1.0943
 Frc consts  --      6.5197                 6.5681                 6.6159
 IR Inten    --     15.3790                17.9541                 1.6397

 - Thermochemistry -
 -------------------
 Temperature   298.150 Kelvin.  Pressure   1.00000 Atm.
 Atom     1 has atomic number  6 and mass  12.00000

 Molecular mass:   219.12325 amu.
 Principal axes and moments of inertia in atomic units:
                           1         2         3
     Eigenvalues --  2112.098504567.196606207.61516
           X            0.99985   0.01018  -0.01371
           Y           -0.01000   0.99987   0.01292
           Z            0.01384  -0.01278   0.99982
 This molecule is an asymmetric top.
 Rotational symmetry number  1.
 Warning -- assumption of classical behavior for rotation
           may cause significant error
 Rotational temperatures (Kelvin)      0.04101     0.01896     0.01395
 Rotational constants (GHZ):           0.85448     0.39515     0.29073
 Zero-point vibrational energy     774525.6 (Joules/Mol)
                                  185.11606 (Kcal/Mol)
 Warning -- explicit consideration of  27 degrees of freedom as
           vibrations may cause significant error
 Vibrational temperatures:     66.34    86.30   104.20   126.05   133.08
          (Kelvin)            142.77   171.60   204.69   238.48   255.12
                              289.20   311.97   322.17   336.55   374.75
                              405.91   408.36   449.34   502.35   548.01
                              606.99   643.03   663.66   732.67   796.81
                              808.00   888.16  1031.52  1067.16  1218.23
                             1332.12  1353.19  1382.02  1403.17  1464.06
                             1517.50  1544.69  1574.81  1579.15  1623.81
                             1645.41  1656.80  1670.82  1686.54  1694.20
                             1697.17  1704.47  1708.53  1749.98  1764.98
                             1768.47  1770.89  1802.46  1859.41  1899.97
                             1914.45  1936.64  1967.48  2022.40  2028.78
                             2056.20  2058.53  2112.05  2148.35  2152.55
                             2157.40  2160.76  2174.10  2174.49  2177.24
                             2180.37  2187.47  2191.18  2200.82  2204.20
                             2218.46  2382.58  4254.05  4351.14  4357.75
                             4373.27  4379.66  4385.58  4390.81  4432.88
                             4460.81  4477.11  4483.05  4490.14  4502.36
                             4531.98  4546.56  4554.37  4560.31  4572.77
                             4608.85

 Zero-point correction=                           0.295001 (Hartree/Particle)
 Thermal correction to Energy=                    0.312202
 Thermal correction to Enthalpy=                  0.313146
 Thermal correction to Gibbs Free Energy=         0.250073
 Sum of electronic and zero-point Energies=           -768.028608
 Sum of electronic and thermal Energies=              -768.011407
 Sum of electronic and thermal Enthalpies=            -768.010463
 Sum of electronic and thermal Free Energies=         -768.073536

                     E (Thermal)             CV                S
                      KCal/Mol        Cal/Mol-Kelvin    Cal/Mol-Kelvin
 Total                  195.910             61.607            132.748
 Electronic               0.000              0.000              0.000
 Translational            0.889              2.981             42.056
 Rotational               0.889              2.981             32.460
 Vibrational            194.132             55.645             58.232
 Vibration     1          0.595              1.979              4.978
 Vibration     2          0.597              1.973              4.458
 Vibration     3          0.599              1.967              4.086
 Vibration     4          0.601              1.958              3.713
 Vibration     5          0.602              1.955              3.607
 Vibration     6          0.604              1.950              3.469
 Vibration     7          0.609              1.933              3.112
 Vibration     8          0.616              1.911              2.773
 Vibration     9          0.624              1.885              2.483
 Vibration    10          0.628              1.870              2.357
 Vibration    11          0.638              1.838              2.124
 Vibration    12          0.646              1.815              1.985
 Vibration    13          0.649              1.805              1.927
 Vibration    14          0.654              1.789              1.849
 Vibration    15          0.669              1.745              1.659
 Vibration    16          0.681              1.707              1.521
 Vibration    17          0.682              1.704              1.510
 Vibration    18          0.701              1.650              1.350
 Vibration    19          0.726              1.577              1.170
 Vibration    20          0.751              1.511              1.036
 Vibration    21          0.784              1.423              0.886
 Vibration    22          0.806              1.368              0.805
 Vibration    23          0.819              1.336              0.762
 Vibration    24          0.864              1.230              0.635
 Vibration    25          0.909              1.131              0.536
 Vibration    26          0.917              1.114              0.521
 Vibration    27          0.977              0.995              0.421

                           ! Non-Optimized Parameters !
 Normal termination of Gaussian 16 at Fri May 24 08:53:00 2019.
