 Gaussian 16, Revision A.03,
 Gaussian 16:  ES64L-G16RevA.03 25-Dec-2016

 -------------------------------------------------------------------
 #p b3lyp 6-31g* opt freq=noraman scrf=(pcm,solvent=tetrahydrofuran)
 -------------------------------------------------------------------

 -----
 title
 -----
 Symbolic Z-matrix:
 Charge =  1 Multiplicity = 1

 SCF Done:  E(RB3LYP) =  -768.320954064     A.U. after   14 cycles
 SCF Done:  E(RB3LYP) =  -768.320954067     A.U. after    6 cycles
 Optimization completed.
    -- Stationary point found.
 Normal termination of Gaussian 16 at Fri May 24 08:37:46 2019.

 --------------------------------------------------------------------
 #P Geom=AllCheck Guess=TCheck SCRF=Check GenChk RB3LYP/6-31G(d) Freq
 --------------------------------------------------------------------

 Structure from the checkpoint file:  "/scratch/Gau-28270.chk"
 -----
 title
 -----
 Charge =  1 Multiplicity = 1

                         Standard orientation:
 ---------------------------------------------------------------------
 Center     Atomic      Atomic             Coordinates (Angstroms)
 Number     Number       Type             X           Y           Z
 ---------------------------------------------------------------------
      1          6           0        1.289712    0.662544   -0.066555
      2          6           0        1.922002   -0.720547   -0.321643
      3          6           0        1.044563   -1.744620   -0.959807
      4          6           0       -0.922013   -0.614529   -0.178930
      5          6           0       -0.182918    0.690991   -0.543430
      6          1           0        1.459458   -2.625699   -1.447244
      7          1           0        2.860337   -0.598187   -0.867206
      8          1           0        1.341110    0.829326    1.018058
      9          1           0       -0.852591   -0.866738    0.882379
     10          1           0       -0.159946    0.756327   -1.638828
     11          8           0       -0.213110   -1.750593   -0.856519
     12          8           0        2.073813   -1.481566    0.885515
     13          8           0        2.080186    1.598033   -0.766291
     14          8           0       -0.903400    1.830387   -0.137671
     15          6           0       -2.383380   -0.689582   -0.621943
     16          1           0       -2.551490   -1.634261   -1.160815
     17          1           0       -2.617523    0.139969   -1.303566
     18          8           0       -3.167527   -0.622768    0.550526
     19          6           0        3.394967   -2.010572    1.132224
     20          1           0        4.108904   -1.186425    1.225241
     21          1           0        3.318256   -2.555275    2.073214
     22          1           0        3.709192   -2.691740    0.336101
     23          6           0        2.060843    2.930666   -0.246611
     24          1           0        2.327662    2.937056    0.819106
     25          1           0        2.816253    3.483824   -0.807984
     26          1           0        1.083315    3.402871   -0.381289
     27          6           0       -1.192020    1.984475    1.260959
     28          1           0       -0.287002    1.963229    1.878532
     29          1           0       -1.653942    2.968713    1.351744
     30          1           0       -1.897465    1.221956    1.605241
     31          6           0       -4.562013   -0.567564    0.273127
     32          1           0       -4.816797    0.323172   -0.317917
     33          1           0       -4.894065   -1.463131   -0.270760
     34          1           0       -5.071811   -0.520491    1.237181
 ---------------------------------------------------------------------

 SCF Done:  E(RB3LYP) =  -768.320954067     A.U. after    1 cycles

 The electronic state is 1-A.
 Alpha  occ. eigenvalues --  -19.32316 -19.23754 -19.19472 -19.18648 -19.18324
 Alpha  occ. eigenvalues --  -10.39460 -10.31864 -10.31647 -10.29359 -10.29123
 Alpha  occ. eigenvalues --  -10.27398 -10.27051 -10.24948 -10.24607 -10.24502
 Alpha  occ. eigenvalues --   -1.21278  -1.10708  -1.08037  -1.06560  -1.06128
 Alpha  occ. eigenvalues --   -0.86768  -0.85684  -0.77420  -0.74925  -0.73685
 Alpha  occ. eigenvalues --   -0.71152  -0.69112  -0.67522  -0.65886  -0.61864
 Alpha  occ. eigenvalues --   -0.60546  -0.59006  -0.56498  -0.54566  -0.52483
 Alpha  occ. eigenvalues --   -0.52123  -0.51328  -0.51072  -0.49995  -0.49309
 Alpha  occ. eigenvalues --   -0.48581  -0.48040  -0.46348  -0.45775  -0.45454
 Alpha  occ. eigenvalues --   -0.44214  -0.42865  -0.42000  -0.41441  -0.41174
 Alpha  occ. eigenvalues --   -0.39441  -0.38727  -0.35837  -0.35131  -0.34770
 Alpha  occ. eigenvalues --   -0.33264  -0.31636  -0.28643  -0.27755
 Alpha virt. eigenvalues --   -0.14386   0.00255   0.03509   0.05318   0.07011
 Alpha virt. eigenvalues --    0.07511   0.07651   0.08774   0.09488   0.10441
 Alpha virt. eigenvalues --    0.10729   0.11793   0.12069   0.12877   0.13158

 Mulliken charges:
               1
     1  C    0.136159
     2  C    0.014649
     3  C    0.308223
     4  C    0.058272
     5  C    0.085852
     6  H    0.279618
     7  H    0.237542
     8  H    0.182787
     9  H    0.240049
    10  H    0.191845
    11  O   -0.330222
    12  O   -0.461759
    13  O   -0.497191
    14  O   -0.478723
    15  C   -0.040746
    16  H    0.177639
    17  H    0.178366
    18  O   -0.477568
    19  C   -0.233665
    20  H    0.193128
    21  H    0.206366
    22  H    0.188181
    23  C   -0.223558
    24  H    0.156052
    25  H    0.178335
    26  H    0.173434
    27  C   -0.251549
    28  H    0.161073
    29  H    0.187890
    30  H    0.180388
    31  C   -0.212114
    32  H    0.157469
    33  H    0.155486
    34  H    0.178290
 Sum of Mulliken charges =   1.00000

 Dipole moment (field-independent basis, Debye):
    X=              3.8355    Y=             -4.5091    Z=             -1.0623  Tot=              6.0143
 Quadrupole moment (field-independent basis, Debye-Ang):
   XX=            -52.9845   YY=            -69.6125   ZZ=            -81.1556
   XY=             -9.1534   XZ=              2.8030   YZ=              8.4438

  Exact polarizability: 170.049  -6.757 143.339   3.266   5.375 125.606
 Approx polarizability: 177.090  -5.615 156.818   5.141   4.417 160.294

                      1                      2                      3
                      A                      A                      A
 Frequencies --     23.9032                31.9786                54.3831
 Red. masses --      3.4371                 3.9922                 3.7911
 Frc consts  --      0.0012                 0.0024                 0.0066
 IR Inten    --      1.2187                 1.1598                 0.8994

                      4                      5                      6
                      A                      A                      A
 Frequencies --     73.8690                93.0354               111.0899
 Red. masses --      2.2697                 2.5959                 2.9620
 Frc consts  --      0.0073                 0.0132                 0.0215
 IR Inten    --      7.9792                 4.3669                 6.4366

                      7                      8                      9
                      A                      A                      A
 Frequencies --    128.0502               130.0619               165.4272
 Red. masses --      1.4529                 1.3700                 2.5481
 Frc consts  --      0.0140                 0.0137                 0.0411
 IR Inten    --     10.4302                 5.1719                 2.0643

                     10                     11                     12
                      A                      A                      A
 Frequencies --    180.7088               188.5620               195.3153
 Red. masses --      2.4239                 1.3640                 1.8941
 Frc consts  --      0.0466                 0.0286                 0.0426
 IR Inten    --      5.3188                 2.7883                 0.6520

                     13                     14                     15
                      A                      A                      A
 Frequencies --    225.2922               246.3136               252.1525
 Red. masses --      1.2556                 3.9844                 3.1758
 Frc consts  --      0.0375                 0.1424                 0.1190
 IR Inten    --      4.8418                18.2148                 8.5984

                     16                     17                     18
                      A                      A                      A
 Frequencies --    275.1376               283.0196               310.4401
 Red. masses --      2.8792                 3.7057                 4.2192
 Frc consts  --      0.1284                 0.1749                 0.2396
 IR Inten    --      8.6434                10.9399                 0.5717

                     19                     20                     21
                      A                      A                      A
 Frequencies --    336.4876               362.9331               387.2116
 Red. masses --      4.7408                 3.7462                 4.1166
 Frc consts  --      0.3163                 0.2907                 0.3637
 IR Inten    --     22.7131                 4.6963                13.7152

                     22                     23                     24
                      A                      A                      A
 Frequencies --    414.1910               485.9003               513.0213
 Red. masses --      4.5438                 3.6229                 3.9234
 Frc consts  --      0.4593                 0.5040                 0.6084
 IR Inten    --      2.0832                52.7151                 8.7922

                     25                     26                     27
                      A                      A                      A
 Frequencies --    533.4028               564.9329               590.5777
 Red. masses --      4.2011                 4.0229                 3.5853
 Frc consts  --      0.7042                 0.7565                 0.7368
 IR Inten    --      9.0589                 4.9583                19.2552

                     28                     29                     30
                      A                      A                      A
 Frequencies --    799.6504               827.3138               882.4283
 Red. masses --      4.3589                 5.3164                 3.6957
 Frc consts  --      1.6422                 2.1439                 1.6956
 IR Inten    --     75.2726                39.3077                47.2139

                     31                     32                     33
                      A                      A                      A
 Frequencies --    920.1587               947.7186               955.3309
 Red. masses --      2.4586                 4.0461                 3.7583
 Frc consts  --      1.2265                 2.1411                 2.0209
 IR Inten    --     25.9101                37.4529                 8.5870

                     34                     35                     36
                      A                      A                      A
 Frequencies --    979.9138              1017.4864              1025.2071
 Red. masses --      3.4936                 2.7781                 2.3275
 Frc consts  --      1.9765                 1.6945                 1.4413
 IR Inten    --     59.6979                 4.3683                19.3107

                     37                     38                     39
                      A                      A                      A
 Frequencies --   1053.1230              1077.3669              1107.2334
 Red. masses --      3.1004                 5.2138                 2.5713
 Frc consts  --      2.0259                 3.5656                 1.8573
 IR Inten    --     80.7503               206.7792                30.9051

                     40                     41                     42
                      A                      A                      A
 Frequencies --   1124.4248              1138.0111              1152.9380
 Red. masses --      2.5523                 2.6205                 3.7487
 Frc consts  --      1.9013                 1.9995                 2.9359
 IR Inten    --      9.6931                57.0352               196.1622

                     43                     44                     45
                      A                      A                      A
 Frequencies --   1155.1001              1159.2879              1177.7459
 Red. masses --      4.7011                 2.9688                 1.2628
 Frc consts  --      3.6956                 2.3508                 1.0320
 IR Inten    --     96.7576               165.9050                 0.9543

                     46                     47                     48
                      A                      A                      A
 Frequencies --   1184.1116              1188.9037              1192.8219
 Red. masses --      1.2650                 1.2963                 1.3201
 Frc consts  --      1.0450                 1.0796                 1.1066
 IR Inten    --      3.3256                 2.9679                10.9454

                     49                     50                     51
                      A                      A                      A
 Frequencies --   1200.6371              1226.7856              1232.0434
 Red. masses --      1.3497                 1.5042                 1.6046
 Frc consts  --      1.1463                 1.3338                 1.4351
 IR Inten    --      8.6558                39.3168                57.7465

                     52                     53                     54
                      A                      A                      A
 Frequencies --   1237.0224              1256.7424              1295.8882
 Red. masses --      1.6566                 1.3157                 1.2359
 Frc consts  --      1.4935                 1.2244                 1.2228
 IR Inten    --      1.4254                12.2435                14.5322

                     55                     56                     57
                      A                      A                      A
 Frequencies --   1316.8328              1338.4360              1344.9246
 Red. masses --      1.2535                 1.2253                 1.4725
 Frc consts  --      1.2806                 1.2933                 1.5693
 IR Inten    --      5.5359                30.1965                 1.7445

                     58                     59                     60
                      A                      A                      A
 Frequencies --   1358.4874              1377.0880              1407.9549
 Red. masses --      1.3569                 1.3811                 1.4584
 Frc consts  --      1.4754                 1.5431                 1.7033
 IR Inten    --     15.4244                17.0600                 8.4375

                     61                     62                     63
                      A                      A                      A
 Frequencies --   1425.7151              1434.5669              1457.7307
 Red. masses --      1.3276                 1.2585                 1.3257
 Frc consts  --      1.5900                 1.5259                 1.6598
 IR Inten    --     33.0530                32.6046                34.0197

                     64                     65                     66
                      A                      A                      A
 Frequencies --   1491.3026              1496.8904              1499.8752
 Red. masses --      1.1320                 1.1459                 1.1349
 Frc consts  --      1.4832                 1.5128                 1.5043
 IR Inten    --     27.0671                 1.2605                 1.1364

                     67                     68                     69
                      A                      A                      A
 Frequencies --   1501.4631              1509.8637              1511.2203
 Red. masses --      1.1476                 1.0472                 1.0697
 Frc consts  --      1.5243                 1.4065                 1.4394
 IR Inten    --      1.0844                 9.6992                 5.7142

                     70                     71                     72
                      A                      A                      A
 Frequencies --   1511.9909              1515.4640              1517.6117
 Red. masses --      1.0553                 1.0597                 1.0545
 Frc consts  --      1.4214                 1.4339                 1.4309
 IR Inten    --     11.2822                22.5027                 3.9250

                     73                     74                     75
                      A                      A                      A
 Frequencies --   1522.9125              1533.3364              1539.6269
 Red. masses --      1.0639                 1.0503                 1.0523
 Frc consts  --      1.4538                 1.4549                 1.4697
 IR Inten    --     13.0686                11.2209                18.3850

                     76                     77                     78
                      A                      A                      A
 Frequencies --   1542.1751              1626.5651              3015.6952
 Red. masses --      1.0886                 5.7594                 1.0496
 Frc consts  --      1.5254                 8.9778                 5.6243
 IR Inten    --      6.1918               323.5647                36.6388

                     79                     80                     81
                      A                      A                      A
 Frequencies --   3021.6680              3033.3002              3044.7511
 Red. masses --      1.0429                 1.0412                 1.0738
 Frc consts  --      5.6101                 5.6441                 5.8650
 IR Inten    --     70.0096                48.5579                 5.5737

                     82                     83                     84
                      A                      A                      A
 Frequencies --   3057.7661              3059.3634              3068.2866
 Red. masses --      1.0438                 1.1019                 1.0301
 Frc consts  --      5.7500                 6.0766                 5.7136
 IR Inten    --     54.7181                58.7022                42.6757

                     85                     86                     87
                      A                      A                      A
 Frequencies --   3075.5334              3077.0661              3117.3187
 Red. masses --      1.1069                 1.0842                 1.0954
 Frc consts  --      6.1689                 6.0482                 6.2716
 IR Inten    --     42.3245                17.1146                36.5512

                     88                     89                     90
                      A                      A                      A
 Frequencies --   3126.1348              3130.5416              3130.9156
 Red. masses --      1.0946                 1.0899                 1.0944
 Frc consts  --      6.3026                 6.2930                 6.3208
 IR Inten    --     16.9856                 3.4130                11.3506

                     91                     92                     93
                      A                      A                      A
 Frequencies --   3146.7183              3159.6974              3163.2912
 Red. masses --      1.1086                 1.0996                 1.1049
 Frc consts  --      6.4675                 6.4680                 6.5139
 IR Inten    --     21.4792                27.3833                25.6322

                     94                     95                     96
                      A                      A                      A
 Frequencies --   3169.6902              3190.4344              3224.4003
 Red. masses --      1.1038                 1.1057                 1.0945
 Frc consts  --      6.5337                 6.6308                 6.7047
 IR Inten    --     18.2947                 8.7943                 3.4332

 - Thermochemistry -
 -------------------
 Temperature   298.150 Kelvin.  Pressure   1.00000 Atm.
 Atom     1 has atomic number  6 and mass  12.00000

 Molecular mass:   219.12325 amu.
 Principal axes and moments of inertia in atomic units:
                           1         2         3
     Eigenvalues --  2326.424914323.695955769.61294
           X            0.99997  -0.00471   0.00589
           Y            0.00464   0.99992   0.01190
           Z           -0.00595  -0.01187   0.99991
 This molecule is an asymmetric top.
 Rotational symmetry number  1.
 Warning -- assumption of classical behavior for rotation
           may cause significant error
 Rotational temperatures (Kelvin)      0.03723     0.02003     0.01501
 Rotational constants (GHZ):           0.77576     0.41741     0.31280
 Zero-point vibrational energy     774387.0 (Joules/Mol)
                                  185.08294 (Kcal/Mol)
 Warning -- explicit consideration of  27 degrees of freedom as
           vibrations may cause significant error
 Vibrational temperatures:     34.39    46.01    78.25   106.28   133.86
          (Kelvin)            159.83   184.24   187.13   238.01   260.00
                              271.30   281.02   324.15   354.39   362.79
                              395.86   407.20   446.65   484.13   522.18
                              557.11   595.93   699.10   738.12   767.45
                              812.81   849.71  1150.52  1190.32  1269.62
                             1323.90  1363.56  1374.51  1409.88  1463.94
                             1475.04  1515.21  1550.09  1593.06  1617.80
                             1637.34  1658.82  1661.93  1667.96  1694.51
                             1703.67  1710.57  1716.20  1727.45  1765.07
                             1772.64  1779.80  1808.17  1864.49  1894.63
                             1925.71  1935.05  1954.56  1981.32  2025.73
                             2051.29  2064.02  2097.35  2145.65  2153.69
                             2157.99  2160.27  2172.36  2174.31  2175.42
                             2180.41  2183.50  2191.13  2206.13  2215.18
                             2218.85  2340.26  4338.91  4347.51  4364.24
                             4380.72  4399.44  4401.74  4414.58  4425.01
                             4427.21  4485.13  4497.81  4504.15  4504.69
                             4527.43  4546.10  4551.27  4560.48  4590.32
                             4639.19

 Zero-point correction=                           0.294948 (Hartree/Particle)
 Thermal correction to Energy=                    0.312402
 Thermal correction to Enthalpy=                  0.313346
 Thermal correction to Gibbs Free Energy=         0.248502
 Sum of electronic and zero-point Energies=           -768.026006
 Sum of electronic and thermal Energies=              -768.008553
 Sum of electronic and thermal Enthalpies=            -768.007608
 Sum of electronic and thermal Free Energies=         -768.072452

                     E (Thermal)             CV                S
                      KCal/Mol        Cal/Mol-Kelvin    Cal/Mol-Kelvin
 Total                  196.035             61.673            136.476
 Electronic               0.000              0.000              0.000
 Translational            0.889              2.981             42.056
 Rotational               0.889              2.981             32.429
 Vibrational            194.257             55.711             61.991
 Vibration     1          0.593              1.985              6.280
 Vibration     2          0.594              1.983              5.703
 Vibration     3          0.596              1.976              4.651
 Vibration     4          0.599              1.966              4.048
 Vibration     5          0.602              1.954              3.595
 Vibration     6          0.607              1.940              3.250
 Vibration     7          0.611              1.925              2.975
 Vibration     8          0.612              1.923              2.945
 Vibration     9          0.624              1.885              2.487
 Vibration    10          0.630              1.866              2.321
 Vibration    11          0.633              1.856              2.242
 Vibration    12          0.636              1.846              2.177
 Vibration    13          0.650              1.803              1.916
 Vibration    14          0.661              1.769              1.757
 Vibration    15          0.664              1.759              1.715
 Vibration    16          0.677              1.719              1.564
 Vibration    17          0.682              1.705              1.515
 Vibration    18          0.699              1.654              1.360
 Vibration    19          0.717              1.603              1.229
 Vibration    20          0.737              1.549              1.110
 Vibration    21          0.756              1.497              1.011
 Vibration    22          0.778              1.439              0.912
 Vibration    23          0.842              1.281              0.694
 Vibration    24          0.868              1.221              0.626
 Vibration    25          0.888              1.176              0.580
 Vibration    26          0.921              1.107              0.514
 Vibration    27          0.948              1.052              0.466

                           ! Non-Optimized Parameters !
 Normal termination of Gaussian 16 at Fri May 24 08:56:13 2019.
