 Gaussian 16, Revision A.03,
 Gaussian 16:  ES64L-G16RevA.03 25-Dec-2016

 -------------------------------------------------------------------
 #p b3lyp 6-31g* opt freq=noraman scrf=(pcm,solvent=tetrahydrofuran)
 -------------------------------------------------------------------

 -----
 title
 -----
 Symbolic Z-matrix:
 Charge =  1 Multiplicity = 1

 SCF Done:  E(RB3LYP) =  -768.327233623     A.U. after   13 cycles
 Optimization completed.
    -- Stationary point found.
 Normal termination of Gaussian 16 at Fri May 24 08:36:24 2019.

 --------------------------------------------------------------------
 #P Geom=AllCheck Guess=TCheck SCRF=Check GenChk RB3LYP/6-31G(d) Freq
 --------------------------------------------------------------------

 Structure from the checkpoint file:  "/scratch/Gau-14766.chk"
 -----
 title
 -----
 Charge =  1 Multiplicity = 1

                         Standard orientation:
 ---------------------------------------------------------------------
 Center     Atomic      Atomic             Coordinates (Angstroms)
 Number     Number       Type             X           Y           Z
 ---------------------------------------------------------------------
      1          6           0       -1.080717    0.653718   -0.257843
      2          6           0       -1.445588   -0.840203   -0.036497
      3          6           0       -0.514478   -1.724406   -0.803645
      4          6           0        1.266897   -0.059470   -0.965398
      5          6           0        0.431529    0.806654    0.001195
      6          1           0       -0.841364   -2.719766   -1.108859
      7          1           0       -1.330336   -1.091541    1.032088
      8          1           0       -1.317592    0.882542   -1.302694
      9          1           0        1.315811    0.376706   -1.964197
     10          1           0        0.658332    0.467084    1.015892
     11          8           0        0.617558   -1.400468   -1.238280
     12          8           0       -2.735572   -1.108102   -0.518133
     13          8           0       -1.893868    1.516531    0.489274
     14          8           0        0.917936    2.129770   -0.050584
     15          6           0        2.658218   -0.392094   -0.462439
     16          1           0        3.198609    0.561376   -0.359801
     17          1           0        3.186952   -1.006705   -1.205815
     18          8           0        2.525412   -1.063601    0.767682
     19          6           0       -3.533735   -1.967241    0.307963
     20          1           0       -4.505494   -2.034834   -0.181820
     21          1           0       -3.096826   -2.970147    0.388677
     22          1           0       -3.650841   -1.537096    1.309705
     23          6           0       -1.647208    1.620363    1.894839
     24          1           0       -1.694198    0.646531    2.399908
     25          1           0       -0.681469    2.094007    2.098103
     26          1           0       -2.447452    2.251352    2.284334
     27          6           0        0.474610    2.963662   -1.129789
     28          1           0        1.036703    3.892852   -1.025376
     29          1           0        0.694387    2.530328   -2.113614
     30          1           0       -0.595851    3.175739   -1.050590
     31          6           0        3.778783   -1.358694    1.376252
     32          1           0        3.559493   -1.871820    2.314310
     33          1           0        4.385996   -2.013417    0.736248
     34          1           0        4.343530   -0.439961    1.586008
 ---------------------------------------------------------------------

 SCF Done:  E(RB3LYP) =  -768.327233623     A.U. after    1 cycles

 The electronic state is 1-A.
 Alpha  occ. eigenvalues --  -19.32983 -19.21256 -19.19592 -19.19334 -19.18713
 Alpha  occ. eigenvalues --  -10.39572 -10.32165 -10.31848 -10.29688 -10.29432
 Alpha  occ. eigenvalues --  -10.27809 -10.26180 -10.25177 -10.25173 -10.24854
 Alpha  occ. eigenvalues --   -1.21547  -1.09914  -1.08270  -1.07004  -1.06354
 Alpha  occ. eigenvalues --   -0.87242  -0.85862  -0.77224  -0.75738  -0.73854
 Alpha  occ. eigenvalues --   -0.71715  -0.69348  -0.67908  -0.65579  -0.61907
 Alpha  occ. eigenvalues --   -0.60473  -0.58706  -0.55957  -0.55292  -0.53628
 Alpha  occ. eigenvalues --   -0.52707  -0.51676  -0.51047  -0.50230  -0.49168
 Alpha  occ. eigenvalues --   -0.48447  -0.47835  -0.46619  -0.46004  -0.45100
 Alpha  occ. eigenvalues --   -0.43662  -0.43391  -0.42519  -0.41944  -0.41053
 Alpha  occ. eigenvalues --   -0.40371  -0.37579  -0.36051  -0.35737  -0.34353
 Alpha  occ. eigenvalues --   -0.31941  -0.30962  -0.29217  -0.28834
 Alpha virt. eigenvalues --   -0.15052  -0.00246   0.04672   0.05310   0.05526
 Alpha virt. eigenvalues --    0.06987   0.07709   0.08993   0.09341   0.10430
 Alpha virt. eigenvalues --    0.11150   0.11593   0.12395   0.12896   0.13368

 Mulliken charges:
               1
     1  C    0.112993
     2  C    0.027513
     3  C    0.301323
     4  C    0.048820
     5  C    0.079731
     6  H    0.275799
     7  H    0.230900
     8  H    0.192903
     9  H    0.236707
    10  H    0.199521
    11  O   -0.305804
    12  O   -0.465830
    13  O   -0.473941
    14  O   -0.483718
    15  C   -0.025049
    16  H    0.185643
    17  H    0.178354
    18  O   -0.486235
    19  C   -0.234053
    20  H    0.198214
    21  H    0.171196
    22  H    0.180499
    23  C   -0.241702
    24  H    0.157362
    25  H    0.177110
    26  H    0.189424
    27  C   -0.241798
    28  H    0.188983
    29  H    0.159571
    30  H    0.179749
    31  C   -0.211073
    32  H    0.178244
    33  H    0.158207
    34  H    0.160435
 Sum of Mulliken charges =   1.00000

 Dipole moment (field-independent basis, Debye):
    X=              0.6235    Y=             -4.5779    Z=             -1.3397  Tot=              4.8105
 Quadrupole moment (field-independent basis, Debye-Ang):
   XX=            -64.9148   YY=            -70.2582   ZZ=            -75.7526
   XY=              6.9626   XZ=             -6.1928   YZ=             -1.7365

  Exact polarizability: 162.576   5.896 149.098  -9.963   1.737 127.616
 Approx polarizability: 177.710   2.694 166.509  -9.238   2.644 152.747

                      1                      2                      3
                      A                      A                      A
 Frequencies --     42.1304                59.9859                75.9265
 Red. masses --      3.9126                 3.2538                 3.8163
 Frc consts  --      0.0041                 0.0069                 0.0130
 IR Inten    --      2.4021                 0.3967                 2.5920

                      4                      5                      6
                      A                      A                      A
 Frequencies --    101.2955               117.4136               124.8235
 Red. masses --      2.5674                 2.9654                 2.9349
 Frc consts  --      0.0155                 0.0241                 0.0269
 IR Inten    --     12.7545                 2.3349                 3.0267

                      7                      8                      9
                      A                      A                      A
 Frequencies --    140.5750               151.5329               177.9121
 Red. masses --      2.6072                 2.5145                 2.6618
 Frc consts  --      0.0304                 0.0340                 0.0496
 IR Inten    --      0.7857                 8.6599                 0.2709

                     10                     11                     12
                      A                      A                      A
 Frequencies --    192.6631               198.3303               216.1595
 Red. masses --      1.3115                 1.4512                 1.4709
 Frc consts  --      0.0287                 0.0336                 0.0405
 IR Inten    --      2.0360                 1.1549                 2.5528

                     13                     14                     15
                      A                      A                      A
 Frequencies --    228.7674               249.1590               265.1122
 Red. masses --      1.4487                 2.6380                 2.5071
 Frc consts  --      0.0447                 0.0965                 0.1038
 IR Inten    --      3.4912                 5.2695                 5.3186

                     16                     17                     18
                      A                      A                      A
 Frequencies --    274.9513               291.9268               294.3574
 Red. masses --      2.9754                 2.6091                 3.7866
 Frc consts  --      0.1325                 0.1310                 0.1933
 IR Inten    --      3.7153                21.1743                 2.5177

                     19                     20                     21
                      A                      A                      A
 Frequencies --    342.2419               358.0690               403.5552
 Red. masses --      4.0763                 4.1286                 4.0252
 Frc consts  --      0.2813                 0.3119                 0.3862
 IR Inten    --      7.8017                 0.8278                 9.8580

                     22                     23                     24
                      A                      A                      A
 Frequencies --    440.0458               484.4679               504.8226
 Red. masses --      3.9069                 3.9132                 3.6519
 Frc consts  --      0.4457                 0.5411                 0.5483
 IR Inten    --     13.3426                 6.7737                12.0587

                     25                     26                     27
                      A                      A                      A
 Frequencies --    570.4808               600.1976               657.9146
 Red. masses --      4.0439                 3.4668                 4.0036
 Frc consts  --      0.7754                 0.7358                 1.0210
 IR Inten    --     24.3593                24.7266                16.3121

                     28                     29                     30
                      A                      A                      A
 Frequencies --    736.3473               751.3581               859.3725
 Red. masses --      4.3058                 4.3040                 1.9965
 Frc consts  --      1.3755                 1.4316                 0.8687
 IR Inten    --     50.2486                81.9114                10.5664

                     31                     32                     33
                      A                      A                      A
 Frequencies --    907.2643               923.5557               958.5455
 Red. masses --      4.1986                 3.4705                 3.7955
 Frc consts  --      2.0362                 1.7441                 2.0547
 IR Inten    --     31.7548                 6.4374                58.5131

                     34                     35                     36
                      A                      A                      A
 Frequencies --    978.8919              1020.3364              1035.7762
 Red. masses --      4.3736                 2.3356                 3.9641
 Frc consts  --      2.4692                 1.4326                 2.5057
 IR Inten    --     15.2837                17.2063                60.3432

                     37                     38                     39
                      A                      A                      A
 Frequencies --   1055.3611              1078.1598              1106.2495
 Red. masses --      2.6722                 3.3718                 3.1766
 Frc consts  --      1.7536                 2.3093                 2.2905
 IR Inten    --     39.6145                99.4673                18.4527

                     40                     41                     42
                      A                      A                      A
 Frequencies --   1129.6319              1149.4657              1157.1165
 Red. masses --      2.4583                 4.0709                 3.3330
 Frc consts  --      1.8482                 3.1691                 2.6293
 IR Inten    --     39.1894               233.1846               192.5197

                     43                     44                     45
                      A                      A                      A
 Frequencies --   1164.5875              1170.5056              1183.5761
 Red. masses --      2.5459                 2.5219                 1.3022
 Frc consts  --      2.0344                 2.0357                 1.0748
 IR Inten    --     52.5213                70.7131                13.7151

                     46                     47                     48
                      A                      A                      A
 Frequencies --   1188.7723              1190.8557              1192.9966
 Red. masses --      1.2763                 1.3341                 1.4892
 Frc consts  --      1.0627                 1.1147                 1.2488
 IR Inten    --      9.6758                 9.1668                16.5739

                     49                     50                     51
                      A                      A                      A
 Frequencies --   1218.3618              1229.1130              1234.3883
 Red. masses --      1.7072                 1.6525                 1.6382
 Frc consts  --      1.4931                 1.4709                 1.4707
 IR Inten    --     38.9174                67.5252                12.4973

                     52                     53                     54
                      A                      A                      A
 Frequencies --   1242.3317              1261.1226              1280.9661
 Red. masses --      1.7047                 1.4218                 1.2535
 Frc consts  --      1.5502                 1.3323                 1.2118
 IR Inten    --     75.6670                 4.8821                50.6960

                     55                     56                     57
                      A                      A                      A
 Frequencies --   1306.0659              1326.4234              1341.8972
 Red. masses --      1.3335                 1.2617                 1.2531
 Frc consts  --      1.3402                 1.3079                 1.3295
 IR Inten    --     53.6778                49.7022                 2.4890

                     58                     59                     60
                      A                      A                      A
 Frequencies --   1359.9348              1413.4437              1427.4861
 Red. masses --      1.2831                 1.4782                 1.3252
 Frc consts  --      1.3981                 1.7399                 1.5910
 IR Inten    --      2.1710                 7.8682                20.2330

                     61                     62                     63
                      A                      A                      A
 Frequencies --   1428.2417              1435.2331              1465.0560
 Red. masses --      1.3236                 1.2800                 1.1813
 Frc consts  --      1.5908                 1.5535                 1.4939
 IR Inten    --     25.8707                24.7553                12.0116

                     64                     65                     66
                      A                      A                      A
 Frequencies --   1497.0387              1499.4613              1501.0287
 Red. masses --      1.1289                 1.1361                 1.1353
 Frc consts  --      1.4907                 1.5050                 1.5071
 IR Inten    --      4.0290                 6.9707                 0.3933

                     67                     68                     69
                      A                      A                      A
 Frequencies --   1508.0785              1509.2014              1513.9020
 Red. masses --      1.1444                 1.0472                 1.0568
 Frc consts  --      1.5334                 1.4054                 1.4271
 IR Inten    --      0.5620                 9.1003                15.5661

                     70                     71                     72
                      A                      A                      A
 Frequencies --   1518.9364              1520.9105              1521.3029
 Red. masses --      1.0462                 1.0652                 1.0478
 Frc consts  --      1.4222                 1.4517                 1.4288
 IR Inten    --     10.0237                17.2759                 6.5922

                     73                     74                     75
                      A                      A                      A
 Frequencies --   1526.8289              1536.6900              1537.9562
 Red. masses --      1.0608                 1.0592                 1.0686
 Frc consts  --      1.4570                 1.4737                 1.4892
 IR Inten    --     23.2824                10.1656                11.2010

                     76                     77                     78
                      A                      A                      A
 Frequencies --   1538.7590              1639.7604              2998.2891
 Red. masses --      1.0693                 6.7368                 1.0790
 Frc consts  --      1.4918                10.6724                 5.7152
 IR Inten    --     13.5595               336.6858                12.3251

                     79                     80                     81
                      A                      A                      A
 Frequencies --   3018.1332              3025.9599              3039.0980
 Red. masses --      1.0503                 1.0397                 1.0380
 Frc consts  --      5.6367                 5.6090                 5.6483
 IR Inten    --     36.0912                65.6411                20.3775

                     82                     83                     84
                      A                      A                      A
 Frequencies --   3043.8376              3047.3237              3057.3847
 Red. masses --      1.0344                 1.0369                 1.1070
 Frc consts  --      5.6465                 5.6731                 6.0969
 IR Inten    --     65.2766                42.1267                48.0601

                     85                     86                     87
                      A                      A                      A
 Frequencies --   3081.4076              3082.5762              3105.4177
 Red. masses --      1.1070                 1.0862                 1.0860
 Frc consts  --      6.1932                 6.0811                 6.1706
 IR Inten    --     47.3648                 6.5305                16.0569

                     88                     89                     90
                      A                      A                      A
 Frequencies --   3109.9223              3114.5480              3122.0984
 Red. masses --      1.1065                 1.0993                 1.1012
 Frc consts  --      6.3050                 6.2828                 6.3241
 IR Inten    --     50.1974                32.5706                40.8433

                     91                     92                     93
                      A                      A                      A
 Frequencies --   3160.8104              3163.0892              3168.3874
 Red. masses --      1.1001                 1.0866                 1.1026
 Frc consts  --      6.4759                 6.4052                 6.5215
 IR Inten    --     26.3099                 0.8445                19.7475

                     94                     95                     96
                      A                      A                      A
 Frequencies --   3169.5765              3180.4476              3193.3435
 Red. masses --      1.1037                 1.1021                 1.0937
 Frc consts  --      6.5328                 6.5680                 6.5711
 IR Inten    --     19.8529                17.3804                 0.7035

 - Thermochemistry -
 -------------------
 Temperature   298.150 Kelvin.  Pressure   1.00000 Atm.
 Atom     1 has atomic number  6 and mass  12.00000

 Molecular mass:   219.12325 amu.
 Principal axes and moments of inertia in atomic units:
                           1         2         3
     Eigenvalues --  2531.091624021.608785199.93533
           X            0.99992   0.01013  -0.00730
           Y           -0.01033   0.99955  -0.02829
           Z            0.00701   0.02837   0.99957
 This molecule is an asymmetric top.
 Rotational symmetry number  1.
 Warning -- assumption of classical behavior for rotation
           may cause significant error
 Rotational temperatures (Kelvin)      0.03422     0.02154     0.01666
 Rotational constants (GHZ):           0.71303     0.44876     0.34707
 Zero-point vibrational energy     775928.5 (Joules/Mol)
                                  185.45136 (Kcal/Mol)
 Warning -- explicit consideration of  26 degrees of freedom as
           vibrations may cause significant error
 Vibrational temperatures:     60.62    86.31   109.24   145.74   168.93
          (Kelvin)            179.59   202.26   218.02   255.98   277.20
                              285.35   311.01   329.15   358.48   381.44
                              395.59   420.02   423.51   492.41   515.18
                              580.63   633.13   697.04   726.33   820.79
                              863.55   946.59  1059.44  1081.04  1236.45
                             1305.35  1328.79  1379.13  1408.41  1468.04
                             1490.25  1518.43  1551.23  1591.65  1625.29
                             1653.82  1664.83  1675.58  1684.10  1702.90
                             1710.38  1713.38  1716.46  1752.95  1768.42
                             1776.01  1787.44  1814.47  1843.02  1879.14
                             1908.43  1930.69  1956.64  2033.63  2053.83
                             2054.92  2064.98  2107.89  2153.90  2157.39
                             2159.65  2169.79  2171.40  2178.17  2185.41
                             2188.25  2188.82  2196.77  2210.95  2212.78
                             2213.93  2359.25  4313.87  4342.42  4353.68
                             4372.58  4379.40  4384.42  4398.89  4433.46
                             4435.14  4468.00  4474.48  4481.14  4492.00
                             4547.70  4550.98  4558.60  4560.31  4575.95
                             4594.51

 Zero-point correction=                           0.295536 (Hartree/Particle)
 Thermal correction to Energy=                    0.312488
 Thermal correction to Enthalpy=                  0.313432
 Thermal correction to Gibbs Free Energy=         0.251327
 Sum of electronic and zero-point Energies=           -768.031698
 Sum of electronic and thermal Energies=              -768.014746
 Sum of electronic and thermal Enthalpies=            -768.013802
 Sum of electronic and thermal Free Energies=         -768.075907

                     E (Thermal)             CV                S
                      KCal/Mol        Cal/Mol-Kelvin    Cal/Mol-Kelvin
 Total                  196.089             61.327            130.711
 Electronic               0.000              0.000              0.000
 Translational            0.889              2.981             42.056
 Rotational               0.889              2.981             32.337
 Vibrational            194.311             55.365             56.318
 Vibration     1          0.595              1.980              5.156
 Vibration     2          0.597              1.973              4.458
 Vibration     3          0.599              1.965              3.994
 Vibration     4          0.604              1.948              3.429
 Vibration     5          0.608              1.935              3.143
 Vibration     6          0.610              1.928              3.024
 Vibration     7          0.615              1.913              2.796
 Vibration     8          0.619              1.901              2.653
 Vibration     9          0.628              1.870              2.350
 Vibration    10          0.635              1.850              2.202
 Vibration    11          0.637              1.842              2.149
 Vibration    12          0.645              1.816              1.991
 Vibration    13          0.651              1.797              1.889
 Vibration    14          0.662              1.764              1.737
 Vibration    15          0.671              1.737              1.628
 Vibration    16          0.677              1.720              1.565
 Vibration    17          0.687              1.689              1.463
 Vibration    18          0.689              1.684              1.449
 Vibration    19          0.721              1.591              1.202
 Vibration    20          0.733              1.559              1.130
 Vibration    21          0.769              1.462              0.950
 Vibration    22          0.800              1.383              0.826
 Vibration    23          0.841              1.284              0.698
 Vibration    24          0.860              1.239              0.646
 Vibration    25          0.927              1.095              0.503
 Vibration    26          0.958              1.031              0.449

 Optimization completed.
    -- Stationary point found.
 Normal termination of Gaussian 16 at Fri May 24 09:23:38 2019.
