 Gaussian 16, Revision A.03,
 Gaussian 16:  ES64L-G16RevA.03 25-Dec-2016

 -------------------------------------------------------------------
 #p b3lyp 6-31g* opt freq=noraman scrf=(pcm,solvent=tetrahydrofuran)
 -------------------------------------------------------------------

 -----
 title
 -----
 Symbolic Z-matrix:
 Charge =  1 Multiplicity = 1

 SCF Done:  E(RB3LYP) =  -768.318784244     A.U. after   14 cycles
 Optimization completed.
    -- Stationary point found.
 Normal termination of Gaussian 16 at Fri May 24 08:39:13 2019.

 --------------------------------------------------------------------
 #P Geom=AllCheck Guess=TCheck SCRF=Check GenChk RB3LYP/6-31G(d) Freq
 --------------------------------------------------------------------

 Structure from the checkpoint file:  "/scratch/Gau-2814.chk"
 -----
 title
 -----
 Charge =  1 Multiplicity = 1

                         Standard orientation:
 ---------------------------------------------------------------------
 Center     Atomic      Atomic             Coordinates (Angstroms)
 Number     Number       Type             X           Y           Z
 ---------------------------------------------------------------------
      1          6           0        1.031589    0.464212    1.069117
      2          6           0        1.808119    0.662046   -0.271331
      3          6           0        0.846518    1.100099   -1.333384
      4          6           0       -0.630768   -0.663304   -0.608898
      5          6           0       -0.285824   -0.343388    0.867879
      6          1           0        1.018354    1.922078   -2.029980
      7          1           0        2.612461    1.392087   -0.143453
      8          1           0        1.707301   -0.117677    1.699565
      9          1           0       -0.037472   -1.490699   -0.996251
     10          1           0       -1.102125    0.269701    1.253274
     11          8           0       -0.244114    0.496214   -1.503357
     12          8           0        2.288124   -0.617313   -0.650933
     13          8           0        0.849320    1.680760    1.753861
     14          8           0       -0.363485   -1.525272    1.639751
     15          6           0       -2.106801   -0.876107   -0.863550
     16          1           0       -2.402190   -1.788757   -0.322939
     17          1           0       -2.279162   -1.046564   -1.936815
     18          8           0       -2.802313    0.257847   -0.400611
     19          6           0        3.450939   -0.610161   -1.501334
     20          1           0        3.757487   -1.653490   -1.580486
     21          1           0        3.222832   -0.220525   -2.499122
     22          1           0        4.253301   -0.020540   -1.045368
     23          6           0        0.062519    2.671451    1.108430
     24          1           0        0.520802    2.995168    0.155264
     25          1           0       -0.965175    2.342835    0.911846
     26          1           0        0.041602    3.534624    1.775076
     27          6           0        0.567154   -2.581931    1.380407
     28          1           0        0.450164   -3.280208    2.210753
     29          1           0        0.341822   -3.108885    0.445070
     30          1           0        1.603511   -2.230718    1.348123
     31          6           0       -4.213461    0.141725   -0.548991
     32          1           0       -4.493303    0.026824   -1.605346
     33          1           0       -4.647565    1.063553   -0.157840
     34          1           0       -4.602809   -0.714539    0.018869
 ---------------------------------------------------------------------

 SCF Done:  E(RB3LYP) =  -768.318784244     A.U. after    1 cycles

 The electronic state is 1-A.
 Alpha  occ. eigenvalues --  -19.32858 -19.22319 -19.20095 -19.19223 -19.18544
 Alpha  occ. eigenvalues --  -10.39461 -10.31757 -10.31724 -10.29755 -10.29224
 Alpha  occ. eigenvalues --  -10.27573 -10.26657 -10.26601 -10.25082 -10.24697
 Alpha  occ. eigenvalues --   -1.21588  -1.10072  -1.08451  -1.07108  -1.06583
 Alpha  occ. eigenvalues --   -0.86909  -0.85140  -0.77502  -0.75726  -0.74229
 Alpha  occ. eigenvalues --   -0.71683  -0.69366  -0.68332  -0.66041  -0.61414
 Alpha  occ. eigenvalues --   -0.60216  -0.58817  -0.57408  -0.54610  -0.53665
 Alpha  occ. eigenvalues --   -0.52304  -0.51218  -0.50805  -0.50204  -0.49808
 Alpha  occ. eigenvalues --   -0.48658  -0.48186  -0.47598  -0.46128  -0.45386
 Alpha  occ. eigenvalues --   -0.44233  -0.43400  -0.42556  -0.41775  -0.41533
 Alpha  occ. eigenvalues --   -0.40047  -0.37703  -0.36240  -0.35472  -0.34620
 Alpha  occ. eigenvalues --   -0.33463  -0.31008  -0.29034  -0.28709
 Alpha virt. eigenvalues --   -0.15967   0.00650   0.03908   0.04997   0.06172
 Alpha virt. eigenvalues --    0.06545   0.08503   0.09142   0.09936   0.10402
 Alpha virt. eigenvalues --    0.10912   0.11398   0.12009   0.12610   0.12866

 Mulliken charges:
               1
     1  C    0.094103
     2  C    0.027523
     3  C    0.265865
     4  C    0.028661
     5  C    0.104448
     6  H    0.283800
     7  H    0.219312
     8  H    0.215024
     9  H    0.240408
    10  H    0.212571
    11  O   -0.300161
    12  O   -0.470087
    13  O   -0.462011
    14  O   -0.486258
    15  C   -0.027028
    16  H    0.182999
    17  H    0.175606
    18  O   -0.482653
    19  C   -0.229976
    20  H    0.201186
    21  H    0.176161
    22  H    0.182963
    23  C   -0.252945
    24  H    0.149637
    25  H    0.180910
    26  H    0.207497
    27  C   -0.239355
    28  H    0.187962
    29  H    0.160963
    30  H    0.168668
    31  C   -0.210638
    32  H    0.156581
    33  H    0.178816
    34  H    0.159449
 Sum of Mulliken charges =   1.00000

 Dipole moment (field-independent basis, Debye):
    X=              3.2518    Y=              1.3242    Z=             -5.9502  Tot=              6.9089
 Quadrupole moment (field-independent basis, Debye-Ang):
   XX=            -57.9284   YY=            -69.9795   ZZ=            -82.0954
   XY=              2.2912   XZ=             -5.0418   YZ=             -2.3516

  Exact polarizability: 154.314  -1.135 150.382  -3.302   0.517 133.406
 Approx polarizability: 165.581  -0.042 172.185  -0.599  -0.456 162.990

                      1                      2                      3
                      A                      A                      A
 Frequencies --     29.5430                61.2962                74.6088
 Red. masses --      3.8950                 3.0912                 2.1342
 Frc consts  --      0.0020                 0.0068                 0.0070
 IR Inten    --      0.6978                 2.3160                 0.9096

                      4                      5                      6
                      A                      A                      A
 Frequencies --     89.9706                94.8372               113.5534
 Red. masses --      2.6483                 1.9802                 2.5647
 Frc consts  --      0.0126                 0.0105                 0.0195
 IR Inten    --      4.8604                 1.1230                 5.8072

                      7                      8                      9
                      A                      A                      A
 Frequencies --    121.0057               144.3374               157.0003
 Red. masses --      2.6408                 1.3836                 2.8075
 Frc consts  --      0.0228                 0.0170                 0.0408
 IR Inten    --      0.5637                 1.2002                 3.3612

                     10                     11                     12
                      A                      A                      A
 Frequencies --    168.1903               181.5775               221.3808
 Red. masses --      2.1995                 2.2061                 1.4552
 Frc consts  --      0.0367                 0.0429                 0.0420
 IR Inten    --      0.6452                 2.7031                 5.9747

                     13                     14                     15
                      A                      A                      A
 Frequencies --    233.5403               253.5657               272.5425
 Red. masses --      1.6050                 2.8304                 2.7814
 Frc consts  --      0.0516                 0.1072                 0.1217
 IR Inten    --     10.9191                 7.4446                18.4927

                     16                     17                     18
                      A                      A                      A
 Frequencies --    276.7085               292.7222               321.0265
 Red. masses --      3.0115                 3.2842                 3.6272
 Frc consts  --      0.1359                 0.1658                 0.2202
 IR Inten    --      1.4321                 3.2154                12.3636

                     19                     20                     21
                      A                      A                      A
 Frequencies --    338.1100               353.0690               383.5512
 Red. masses --      4.0755                 3.2557                 3.0475
 Frc consts  --      0.2745                 0.2391                 0.2641
 IR Inten    --      9.4683                 0.3928                20.2044

                     22                     23                     24
                      A                      A                      A
 Frequencies --    456.1036               488.0729               516.7050
 Red. masses --      4.1673                 5.1186                 4.0243
 Frc consts  --      0.5108                 0.7184                 0.6330
 IR Inten    --     12.0978                 7.2177                25.5759

                     25                     26                     27
                      A                      A                      A
 Frequencies --    555.5588               596.4898               650.2377
 Red. masses --      3.8853                 4.3159                 4.4478
 Frc consts  --      0.7065                 0.9048                 1.1080
 IR Inten    --     17.7719                 9.4904                13.8592

                     28                     29                     30
                      A                      A                      A
 Frequencies --    744.4315               856.7640               882.8427
 Red. masses --      4.3150                 4.8631                 3.5129
 Frc consts  --      1.4089                 2.1032                 1.6132
 IR Inten    --     57.8145                31.6079                13.5698

                     31                     32                     33
                      A                      A                      A
 Frequencies --    904.3693               915.8810               938.5967
 Red. masses --      2.7311                 3.5618                 4.1834
 Frc consts  --      1.3161                 1.7603                 2.1714
 IR Inten    --     19.3483                77.8038                76.3035

                     34                     35                     36
                      A                      A                      A
 Frequencies --    958.0660               987.8362              1013.6228
 Red. masses --      3.9091                 2.9202                 2.8732
 Frc consts  --      2.1141                 1.6789                 1.7393
 IR Inten    --     15.0221                 3.9645                16.3285

                     37                     38                     39
                      A                      A                      A
 Frequencies --   1030.8552              1053.2520              1098.7486
 Red. masses --      2.3571                 2.9589                 2.1249
 Frc consts  --      1.4758                 1.9340                 1.5114
 IR Inten    --     46.2655                55.4125                11.3361

                     40                     41                     42
                      A                      A                      A
 Frequencies --   1104.7803              1121.8740              1134.1339
 Red. masses --      4.4066                 3.7611                 4.2201
 Frc consts  --      3.1689                 2.7890                 3.1982
 IR Inten    --    138.8432                93.8955               352.1717

                     43                     44                     45
                      A                      A                      A
 Frequencies --   1159.3911              1166.8090              1175.5771
 Red. masses --      3.1075                 1.4151                 2.4542
 Frc consts  --      2.4610                 1.1351                 1.9983
 IR Inten    --     45.6879                15.8917                66.3402

                     46                     47                     48
                      A                      A                      A
 Frequencies --   1187.0561              1187.3411              1190.9352
 Red. masses --      1.3004                 1.2846                 1.3596
 Frc consts  --      1.0796                 1.0670                 1.1362
 IR Inten    --      5.6999                 0.8008                 2.6810

                     49                     50                     51
                      A                      A                      A
 Frequencies --   1213.8939              1225.6155              1228.8740
 Red. masses --      1.4529                 1.6090                 1.5602
 Frc consts  --      1.2614                 1.4240                 1.3881
 IR Inten    --      3.9373                39.7046                76.0804

                     52                     53                     54
                      A                      A                      A
 Frequencies --   1234.0298              1240.4308              1276.4534
 Red. masses --      1.7251                 1.4345                 1.1999
 Frc consts  --      1.5478                 1.3005                 1.1518
 IR Inten    --     12.2015                18.3034                24.2421

                     55                     56                     57
                      A                      A                      A
 Frequencies --   1307.5327              1332.1513              1341.6679
 Red. masses --      1.2681                 1.2758                 1.2234
 Frc consts  --      1.2773                 1.3340                 1.2975
 IR Inten    --      7.3282                 7.0392                39.6129

                     58                     59                     60
                      A                      A                      A
 Frequencies --   1380.5808              1386.2854              1390.2520
 Red. masses --      1.2736                 1.4682                 1.2334
 Frc consts  --      1.4302                 1.6624                 1.4045
 IR Inten    --     14.8062                11.4868                 7.8308

                     61                     62                     63
                      A                      A                      A
 Frequencies --   1427.6392              1438.5297              1448.1983
 Red. masses --      1.3910                 1.3672                 1.2717
 Frc consts  --      1.6704                 1.6670                 1.5714
 IR Inten    --     20.0967                27.0135                12.7981

                     64                     65                     66
                      A                      A                      A
 Frequencies --   1495.4593              1496.9165              1499.3045
 Red. masses --      1.1158                 1.1215                 1.1400
 Frc consts  --      1.4703                 1.4807                 1.5099
 IR Inten    --      4.8384                 4.6014                 4.7337

                     67                     68                     69
                      A                      A                      A
 Frequencies --   1502.6200              1509.8814              1510.3925
 Red. masses --      1.0941                 1.0461                 1.0512
 Frc consts  --      1.4555                 1.4051                 1.4129
 IR Inten    --      3.5199                 9.3647                12.4519

                     70                     71                     72
                      A                      A                      A
 Frequencies --   1514.5527              1519.2325              1520.0803
 Red. masses --      1.0761                 1.0674                 1.0754
 Frc consts  --      1.4544                 1.4516                 1.4640
 IR Inten    --     11.5566                22.9437                 6.9884

                     73                     74                     75
                      A                      A                      A
 Frequencies --   1521.9827              1525.9904              1532.4992
 Red. masses --      1.0635                 1.0630                 1.0553
 Frc consts  --      1.4515                 1.4584                 1.4603
 IR Inten    --      9.5604                20.9103                19.1951

                     76                     77                     78
                      A                      A                      A
 Frequencies --   1537.6630              1631.2490              2954.9991
 Red. masses --      1.0931                 5.7156                 1.0572
 Frc consts  --      1.5227                 8.9609                 5.4388
 IR Inten    --      5.8947               171.9187               120.3072

                     79                     80                     81
                      A                      A                      A
 Frequencies --   3015.2906              3023.7193              3045.9472
 Red. masses --      1.0510                 1.0394                 1.0369
 Frc consts  --      5.6300                 5.5991                 5.6680
 IR Inten    --     36.8357                70.2784                39.9207

                     82                     83                     84
                      A                      A                      A
 Frequencies --   3052.6408              3059.7738              3078.1851
 Red. masses --      1.1066                 1.0314                 1.0805
 Frc consts  --      6.0758                 5.6894                 6.0321
 IR Inten    --     48.5615                58.6013                38.1318

                     85                     86                     87
                      A                      A                      A
 Frequencies --   3078.5088              3110.4824              3113.8738
 Red. masses --      1.1066                 1.0880                 1.1014
 Frc consts  --      6.1793                 6.2023                 6.2919
 IR Inten    --     51.6574                15.9018                39.4352

                     88                     89                     90
                      A                      A                      A
 Frequencies --   3129.7012              3133.0340              3134.5283
 Red. masses --      1.0873                 1.1069                 1.0848
 Frc consts  --      6.2748                 6.4016                 6.2797
 IR Inten    --      7.2282                25.1017                 6.8148

                     91                     92                     93
                      A                      A                      A
 Frequencies --   3160.8417              3166.2885              3170.6020
 Red. masses --      1.0999                 1.1026                 1.0956
 Frc consts  --      6.4747                 6.5125                 6.4893
 IR Inten    --     25.8744                21.2600                11.5929

                     94                     95                     96
                      A                      A                      A
 Frequencies --   3171.1467              3183.1206              3201.2722
 Red. masses --      1.0896                 1.1040                 1.0948
 Frc consts  --      6.4560                 6.5908                 6.6104
 IR Inten    --      4.5566                 9.8728                 2.7035

 - Thermochemistry -
 -------------------
 Temperature   298.150 Kelvin.  Pressure   1.00000 Atm.
 Atom     1 has atomic number  6 and mass  12.00000

 Molecular mass:   219.12325 amu.
 Principal axes and moments of inertia in atomic units:
                           1         2         3
     Eigenvalues --  2403.323294065.704554316.55360
           X            0.99995  -0.00766  -0.00684
           Y            0.00770   0.99996   0.00522
           Z            0.00680  -0.00527   0.99996
 This molecule is an asymmetric top.
 Rotational symmetry number  1.
 Warning -- assumption of classical behavior for rotation
           may cause significant error
 Rotational temperatures (Kelvin)      0.03604     0.02130     0.02007
 Rotational constants (GHZ):           0.75094     0.44389     0.41810
 Zero-point vibrational energy     774177.6 (Joules/Mol)
                                  185.03288 (Kcal/Mol)
 Warning -- explicit consideration of  26 degrees of freedom as
           vibrations may cause significant error
 Vibrational temperatures:     42.51    88.19   107.35   129.45   136.45
          (Kelvin)            163.38   174.10   207.67   225.89   241.99
                              261.25   318.52   336.01   364.82   392.13
                              398.12   421.16   461.89   486.46   507.99
                              551.84   656.23   702.23   743.42   799.33
                              858.22   935.55  1071.07  1232.69  1270.21
                             1301.19  1317.75  1350.43  1378.44  1421.28
                             1458.38  1483.17  1515.39  1580.85  1589.53
                             1614.13  1631.77  1668.11  1678.78  1691.39
                             1707.91  1708.32  1713.49  1746.52  1763.39
                             1768.08  1775.49  1784.70  1836.53  1881.25
                             1916.67  1930.36  1986.35  1994.56  2000.26
                             2054.05  2069.72  2083.63  2151.63  2153.73
                             2157.16  2161.94  2172.38  2173.12  2179.10
                             2185.84  2187.06  2189.79  2195.56  2204.92
                             2212.35  2347.00  4251.58  4338.33  4350.46
                             4382.44  4392.07  4402.33  4428.82  4429.29
                             4475.29  4480.17  4502.94  4507.74  4509.89
                             4547.75  4555.58  4561.79  4562.57  4579.80
                             4605.92

 Zero-point correction=                           0.294869 (Hartree/Particle)
 Thermal correction to Energy=                    0.312033
 Thermal correction to Enthalpy=                  0.312977
 Thermal correction to Gibbs Free Energy=         0.249885
 Sum of electronic and zero-point Energies=           -768.023916
 Sum of electronic and thermal Energies=              -768.006751
 Sum of electronic and thermal Enthalpies=            -768.005807
 Sum of electronic and thermal Free Energies=         -768.068899

                     E (Thermal)             CV                S
                      KCal/Mol        Cal/Mol-Kelvin    Cal/Mol-Kelvin
 Total                  195.804             61.514            132.788
 Electronic               0.000              0.000              0.000
 Translational            0.889              2.981             42.056
 Rotational               0.889              2.981             32.112
 Vibrational            194.026             55.553             58.620
 Vibration     1          0.593              1.984              5.860
 Vibration     2          0.597              1.973              4.415
 Vibration     3          0.599              1.966              4.028
 Vibration     4          0.602              1.956              3.661
 Vibration     5          0.603              1.953              3.558
 Vibration     6          0.607              1.938              3.207
 Vibration     7          0.609              1.932              3.084
 Vibration     8          0.616              1.909              2.746
 Vibration     9          0.621              1.895              2.586
 Vibration    10          0.625              1.882              2.456
 Vibration    11          0.630              1.865              2.312
 Vibration    12          0.648              1.809              1.948
 Vibration    13          0.654              1.790              1.852
 Vibration    14          0.665              1.757              1.706
 Vibration    15          0.676              1.724              1.580
 Vibration    16          0.678              1.717              1.554
 Vibration    17          0.688              1.687              1.458
 Vibration    18          0.706              1.633              1.305
 Vibration    19          0.718              1.599              1.221
 Vibration    20          0.729              1.569              1.152
 Vibration    21          0.753              1.505              1.025
 Vibration    22          0.814              1.347              0.778
 Vibration    23          0.844              1.276              0.689
 Vibration    24          0.872              1.213              0.618
 Vibration    25          0.911              1.128              0.533
 Vibration    26          0.954              1.039              0.456

 Optimization completed.
    -- Stationary point found.
 Normal termination of Gaussian 16 at Fri May 24 09:32:24 2019.
