 Gaussian 16, Revision A.03,
 Gaussian 16:  ES64L-G16RevA.03 25-Dec-2016

 -------------------------------------------------------------------
 #p b3lyp 6-31g* opt freq=noraman scrf=(pcm,solvent=tetrahydrofuran)
 -------------------------------------------------------------------

 -----
 title
 -----
 Symbolic Z-matrix:
 Charge =  1 Multiplicity = 1

 SCF Done:  E(RB3LYP) =  -768.324496156     A.U. after   13 cycles
 Optimization completed.
    -- Stationary point found.
 Normal termination of Gaussian 16 at Fri May 24 08:32:49 2019.

 --------------------------------------------------------------------
 #P Geom=AllCheck Guess=TCheck SCRF=Check GenChk RB3LYP/6-31G(d) Freq
 --------------------------------------------------------------------

 Structure from the checkpoint file:  "/scratch/Gau-45581.chk"
 -----
 title
 -----
 Charge =  1 Multiplicity = 1

                         Standard orientation:
 ---------------------------------------------------------------------
 Center     Atomic      Atomic             Coordinates (Angstroms)
 Number     Number       Type             X           Y           Z
 ---------------------------------------------------------------------
      1          6           0       -1.093220    0.478939   -0.532520
      2          6           0       -1.572363   -0.868898    0.069916
      3          6           0       -0.491690   -1.895003   -0.027851
      4          6           0        1.326187   -0.268700   -0.169615
      5          6           0        0.289923    0.846164    0.052852
      6          1           0       -0.743609   -2.955920   -0.069712
      7          1           0       -1.779211   -0.739368    1.148413
      8          1           0       -0.972701    0.337916   -1.612028
      9          1           0        1.692858   -0.219684   -1.195965
     10          1           0        0.204513    1.054285    1.129907
     11          8           0        0.736044   -1.657431   -0.126397
     12          8           0       -2.692421   -1.345090   -0.627109
     13          8           0       -2.040911    1.509010   -0.414414
     14          8           0        0.863862    1.943755   -0.622860
     15          6           0        2.468959   -0.272396    0.844634
     16          1           0        2.066915   -0.516125    1.833727
     17          1           0        2.860285    0.755108    0.875830
     18          8           0        3.466634   -1.216090    0.554763
     19          6           0       -3.645552   -2.073007    0.160559
     20          1           0       -3.220686   -3.003832    0.555869
     21          1           0       -4.013252   -1.459841    0.992149
     22          1           0       -4.468666   -2.312040   -0.513082
     23          6           0       -2.609884    1.760907    0.870710
     24          1           0       -3.204815    2.668092    0.755323
     25          1           0       -1.853266    1.931834    1.645876
     26          1           0       -3.274708    0.946609    1.184409
     27          6           0        0.604437    3.233968   -0.059934
     28          1           0        0.873489    3.259102    1.004130
     29          1           0        1.240321    3.931781   -0.607698
     30          1           0       -0.443973    3.518643   -0.184939
     31          6           0        4.435095   -0.779508   -0.396934
     32          1           0        5.178572   -1.575516   -0.467944
     33          1           0        3.997519   -0.615942   -1.391153
     34          1           0        4.923396    0.146867   -0.065870
 ---------------------------------------------------------------------

 SCF Done:  E(RB3LYP) =  -768.324496156     A.U. after    1 cycles

 The electronic state is 1-A.
 Alpha  occ. eigenvalues --  -19.33067 -19.21384 -19.19585 -19.19420 -19.18421
 Alpha  occ. eigenvalues --  -10.39760 -10.32152 -10.31986 -10.29884 -10.29711
 Alpha  occ. eigenvalues --  -10.27958 -10.26396 -10.25719 -10.25008 -10.24758
 Alpha  occ. eigenvalues --   -1.21740  -1.10083  -1.08339  -1.06773  -1.06556
 Alpha  occ. eigenvalues --   -0.87289  -0.85985  -0.77378  -0.75440  -0.74319
 Alpha  occ. eigenvalues --   -0.71723  -0.69644  -0.68119  -0.65123  -0.62725
 Alpha  occ. eigenvalues --   -0.60729  -0.59063  -0.55854  -0.55027  -0.53879
 Alpha  occ. eigenvalues --   -0.52725  -0.51527  -0.50947  -0.50708  -0.49367
 Alpha  occ. eigenvalues --   -0.48782  -0.47958  -0.46558  -0.45799  -0.45666
 Alpha  occ. eigenvalues --   -0.44084  -0.43635  -0.42355  -0.41771  -0.40734
 Alpha  occ. eigenvalues --   -0.40185  -0.37928  -0.35959  -0.35179  -0.34679
 Alpha  occ. eigenvalues --   -0.32049  -0.31887  -0.29687  -0.27995
 Alpha virt. eigenvalues --   -0.15197   0.00040   0.04127   0.04685   0.05692
 Alpha virt. eigenvalues --    0.07131   0.07676   0.08338   0.08677   0.10087
 Alpha virt. eigenvalues --    0.10512   0.11150   0.12191   0.12391   0.12607

 Mulliken charges:
               1
     1  C    0.138280
     2  C    0.012519
     3  C    0.300199
     4  C    0.061255
     5  C    0.072619
     6  H    0.276391
     7  H    0.228867
     8  H    0.195845
     9  H    0.242523
    10  H    0.172713
    11  O   -0.301527
    12  O   -0.463783
    13  O   -0.472847
    14  O   -0.483865
    15  C   -0.046124
    16  H    0.186740
    17  H    0.187187
    18  O   -0.466881
    19  C   -0.237439
    20  H    0.171402
    21  H    0.177227
    22  H    0.201523
    23  C   -0.246500
    24  H    0.195811
    25  H    0.163492
    26  H    0.166893
    27  C   -0.226004
    28  H    0.159906
    29  H    0.183528
    30  H    0.176225
    31  C   -0.225462
    32  H    0.182561
    33  H    0.155522
    34  H    0.161206
 Sum of Mulliken charges =   1.00000

 Dipole moment (field-independent basis, Debye):
    X=             -1.8530    Y=             -2.8521    Z=              3.1450  Tot=              4.6324
 Quadrupole moment (field-independent basis, Debye-Ang):
   XX=            -63.6624   YY=            -67.7966   ZZ=            -84.9889
   XY=             11.3178   XZ=            -10.8170   YZ=              4.6514

  Exact polarizability: 175.286   4.624 152.645  -5.410   2.961 113.186
 Approx polarizability: 184.930  -0.315 169.609  -3.938  -0.419 143.465

                      1                      2                      3
                      A                      A                      A
 Frequencies --     47.2852                57.3933                68.1724
 Red. masses --      4.2353                 3.1067                 4.0101
 Frc consts  --      0.0056                 0.0060                 0.0110
 IR Inten    --      4.6567                 0.6968                 1.3894

                      4                      5                      6
                      A                      A                      A
 Frequencies --     90.4417                94.4837               103.0176
 Red. masses --      2.2152                 2.0237                 2.3277
 Frc consts  --      0.0107                 0.0106                 0.0146
 IR Inten    --      2.2426                 3.6084                 6.7766

                      7                      8                      9
                      A                      A                      A
 Frequencies --    108.7245               135.8180               149.7136
 Red. masses --      2.1271                 1.9434                 1.5029
 Frc consts  --      0.0148                 0.0211                 0.0198
 IR Inten    --      0.7221                 2.8125                 2.4387

                     10                     11                     12
                      A                      A                      A
 Frequencies --    169.6953               186.5808               195.7361
 Red. masses --      1.5760                 1.6020                 1.7697
 Frc consts  --      0.0267                 0.0329                 0.0399
 IR Inten    --      2.2124                 1.5080                 4.6089

                     13                     14                     15
                      A                      A                      A
 Frequencies --    224.8038               242.3479               246.4813
 Red. masses --      2.4908                 2.8164                 2.7938
 Frc consts  --      0.0742                 0.0975                 0.1000
 IR Inten    --     16.3023                 5.5865                11.2536

                     16                     17                     18
                      A                      A                      A
 Frequencies --    268.1125               303.3378               309.1108
 Red. masses --      3.5088                 4.0618                 4.4129
 Frc consts  --      0.1486                 0.2202                 0.2484
 IR Inten    --      1.9000                 4.8015                 4.8737

                     19                     20                     21
                      A                      A                      A
 Frequencies --    345.3822               381.8784               431.3024
 Red. masses --      3.9258                 4.6323                 3.4744
 Frc consts  --      0.2759                 0.3980                 0.3808
 IR Inten    --      0.2371                 3.4788                 8.8668

                     22                     23                     24
                      A                      A                      A
 Frequencies --    441.6295               450.9462               520.5076
 Red. masses --      3.7977                 2.7648                 3.1591
 Frc consts  --      0.4364                 0.3313                 0.5043
 IR Inten    --      7.9068                13.5171                11.5723

                     25                     26                     27
                      A                      A                      A
 Frequencies --    545.4175               581.3919               612.6473
 Red. masses --      3.3572                 3.6584                 3.5971
 Frc consts  --      0.5884                 0.7286                 0.7955
 IR Inten    --     25.5521                29.8706                17.4621

                     28                     29                     30
                      A                      A                      A
 Frequencies --    717.0900               737.0941               854.1984
 Red. masses --      4.1433                 4.1696                 2.0417
 Frc consts  --      1.2553                 1.3347                 0.8777
 IR Inten    --     54.6515                82.2536                 0.2283

                     31                     32                     33
                      A                      A                      A
 Frequencies --    927.0826               942.3990               959.4113
 Red. masses --      5.0554                 3.5615                 3.8111
 Frc consts  --      2.5600                 1.8636                 2.0668
 IR Inten    --     24.5329                16.3581                37.6801

                     34                     35                     36
                      A                      A                      A
 Frequencies --    974.5409              1018.1063              1064.0186
 Red. masses --      3.9880                 4.7158                 2.8009
 Frc consts  --      2.2315                 2.8800                 1.8683
 IR Inten    --     75.1384                 1.6988                21.1486

                     37                     38                     39
                      A                      A                      A
 Frequencies --   1077.0969              1085.3429              1099.5284
 Red. masses --      2.5331                 3.3428                 3.4063
 Frc consts  --      1.7315                 2.3200                 2.4263
 IR Inten    --      9.1030               116.9999                 2.1808

                     40                     41                     42
                      A                      A                      A
 Frequencies --   1127.8452              1143.7809              1149.5645
 Red. masses --      2.5359                 4.2189                 3.2380
 Frc consts  --      1.9005                 3.2519                 2.5211
 IR Inten    --     58.0589               293.8199               138.5113

                     43                     44                     45
                      A                      A                      A
 Frequencies --   1165.9025              1167.2322              1180.1947
 Red. masses --      2.6986                 3.6768                 1.3048
 Frc consts  --      2.1613                 2.9514                 1.0708
 IR Inten    --    122.7841                76.8524                 1.4094

                     46                     47                     48
                      A                      A                      A
 Frequencies --   1182.8925              1186.8679              1188.4191
 Red. masses --      1.5055                 1.3045                 1.2695
 Frc consts  --      1.2412                 1.0827                 1.0564
 IR Inten    --      3.3010                 7.8525                 6.6445

                     49                     50                     51
                      A                      A                      A
 Frequencies --   1213.2730              1228.9362              1230.8432
 Red. masses --      1.4564                 1.6931                 1.7080
 Frc consts  --      1.2631                 1.5066                 1.5245
 IR Inten    --     37.3452                26.7337               108.4274

                     52                     53                     54
                      A                      A                      A
 Frequencies --   1236.9218              1259.4713              1293.3922
 Red. masses --      1.6681                 1.4931                 1.4359
 Frc consts  --      1.5036                 1.3955                 1.4153
 IR Inten    --     25.9325                 9.5284                72.9584

                     55                     56                     57
                      A                      A                      A
 Frequencies --   1318.2293              1326.3979              1352.8331
 Red. masses --      1.3187                 1.2277                 1.1467
 Frc consts  --      1.3502                 1.2726                 1.2365
 IR Inten    --     14.8747                12.8021                60.2055

                     58                     59                     60
                      A                      A                      A
 Frequencies --   1377.4133              1399.8525              1411.4387
 Red. masses --      1.1966                 1.2946                 1.2672
 Frc consts  --      1.3376                 1.4947                 1.4874
 IR Inten    --      0.9199                 0.8478                 2.3374

                     61                     62                     63
                      A                      A                      A
 Frequencies --   1419.6859              1435.0183              1449.8454
 Red. masses --      1.3117                 1.3800                 1.2031
 Frc consts  --      1.5576                 1.6743                 1.4900
 IR Inten    --     14.3665                60.5505                26.6798

                     64                     65                     66
                      A                      A                      A
 Frequencies --   1490.6483              1495.7701              1498.2927
 Red. masses --      1.0930                 1.1123                 1.1420
 Frc consts  --      1.4309                 1.4662                 1.5104
 IR Inten    --      2.1682                 3.1158                 1.3330

                     67                     68                     69
                      A                      A                      A
 Frequencies --   1504.7131              1508.7443              1509.7870
 Red. masses --      1.0924                 1.0925                 1.0917
 Frc consts  --      1.4573                 1.4652                 1.4661
 IR Inten    --      3.7999                 9.0648                 7.3444

                     70                     71                     72
                      A                      A                      A
 Frequencies --   1516.5693              1517.6248              1521.3206
 Red. masses --      1.0489                 1.0741                 1.0561
 Frc consts  --      1.4214                 1.4576                 1.4401
 IR Inten    --     16.7976                 3.0283                 1.6311

                     73                     74                     75
                      A                      A                      A
 Frequencies --   1527.1213              1528.7315              1531.4671
 Red. masses --      1.0820                 1.0741                 1.0563
 Frc consts  --      1.4866                 1.4790                 1.4597
 IR Inten    --     27.1716                10.0239                 7.4177

                     76                     77                     78
                      A                      A                      A
 Frequencies --   1535.3094              1649.4722              2968.9623
 Red. masses --      1.0496                 6.8506                 1.0790
 Frc consts  --      1.4577                10.9817                 5.6037
 IR Inten    --     12.9742               313.3920                14.3341

                     79                     80                     81
                      A                      A                      A
 Frequencies --   3014.2628              3023.5846              3033.7455
 Red. masses --      1.0824                 1.0365                 1.0592
 Frc consts  --      5.7945                 5.5830                 5.7434
 IR Inten    --     10.2380                60.8400                30.3629

                     82                     83                     84
                      A                      A                      A
 Frequencies --   3039.7039              3042.5045              3045.0088
 Red. masses --      1.0347                 1.0356                 1.0376
 Frc consts  --      5.6328                 5.6480                 5.6682
 IR Inten    --     14.4502                71.0619                55.9752

                     85                     86                     87
                      A                      A                      A
 Frequencies --   3080.9167              3093.3180              3100.3996
 Red. masses --      1.1059                 1.1062                 1.0858
 Frc consts  --      6.1849                 6.2362                 6.1494
 IR Inten    --     65.6922                16.8776                 9.2118

                     88                     89                     90
                      A                      A                      A
 Frequencies --   3102.6848              3105.2337              3125.8492
 Red. masses --      1.1059                 1.1065                 1.0988
 Frc consts  --      6.2726                 6.2860                 6.3259
 IR Inten    --     74.9492                36.0641                38.4002

                     91                     92                     93
                      A                      A                      A
 Frequencies --   3154.4205              3159.6594              3166.6050
 Red. masses --      1.0868                 1.0998                 1.1052
 Frc consts  --      6.3714                 6.4690                 6.5295
 IR Inten    --      2.0415                27.4146                22.6196

                     94                     95                     96
                      A                      A                      A
 Frequencies --   3167.4192              3182.9486              3195.7657
 Red. masses --      1.1003                 1.1011                 1.0939
 Frc consts  --      6.5036                 6.5724                 6.5821
 IR Inten    --     17.3806                15.3414                 0.6642

 - Thermochemistry -
 -------------------
 Temperature   298.150 Kelvin.  Pressure   1.00000 Atm.
 Atom     1 has atomic number  6 and mass  12.00000

 Molecular mass:   219.12325 amu.
 Principal axes and moments of inertia in atomic units:
                           1         2         3
     Eigenvalues --  2235.685684448.871436224.15037
           X            0.99973   0.01791  -0.01486
           Y           -0.01773   0.99977   0.01223
           Z            0.01507  -0.01196   0.99981
 This molecule is an asymmetric top.
 Rotational symmetry number  1.
 Warning -- assumption of classical behavior for rotation
           may cause significant error
 Rotational temperatures (Kelvin)      0.03874     0.01947     0.01392
 Rotational constants (GHZ):           0.80724     0.40566     0.28996
 Zero-point vibrational energy     773703.3 (Joules/Mol)
                                  184.91952 (Kcal/Mol)
 Warning -- explicit consideration of  27 degrees of freedom as
           vibrations may cause significant error
 Vibrational temperatures:     68.03    82.58    98.08   130.13   135.94
          (Kelvin)            148.22   156.43   195.41   215.40   244.15
                              268.45   281.62   323.44   348.68   354.63
                              385.75   436.44   444.74   496.93   549.44
                              620.55   635.41   648.81   748.89   784.73
                              836.49   881.46  1031.73  1060.51  1229.00
                             1333.87  1355.90  1380.38  1402.15  1464.83
                             1530.89  1549.70  1561.57  1581.98  1622.72
                             1645.65  1653.97  1677.47  1679.39  1698.04
                             1701.92  1707.64  1709.87  1745.63  1768.17
                             1770.91  1779.65  1812.10  1860.90  1896.64
                             1908.39  1946.43  1981.79  2014.08  2030.75
                             2042.61  2064.67  2086.00  2144.71  2152.08
                             2155.71  2164.95  2170.75  2172.25  2182.00
                             2183.52  2188.84  2197.19  2199.50  2203.44
                             2208.97  2373.22  4271.67  4336.85  4350.26
                             4364.88  4373.46  4377.49  4381.09  4432.75
                             4450.59  4460.78  4464.07  4467.74  4497.40
                             4538.51  4546.05  4556.04  4557.21  4579.55
                             4597.99

 Zero-point correction=                           0.294688 (Hartree/Particle)
 Thermal correction to Energy=                    0.312008
 Thermal correction to Enthalpy=                  0.312952
 Thermal correction to Gibbs Free Energy=         0.249459
 Sum of electronic and zero-point Energies=           -768.029808
 Sum of electronic and thermal Energies=              -768.012488
 Sum of electronic and thermal Enthalpies=            -768.011544
 Sum of electronic and thermal Free Energies=         -768.075037

                     E (Thermal)             CV                S
                      KCal/Mol        Cal/Mol-Kelvin    Cal/Mol-Kelvin
 Total                  195.788             61.664            133.632
 Electronic               0.000              0.000              0.000
 Translational            0.889              2.981             42.056
 Rotational               0.889              2.981             32.493
 Vibrational            194.010             55.702             59.083
 Vibration     1          0.595              1.979              4.928
 Vibration     2          0.596              1.975              4.545
 Vibration     3          0.598              1.969              4.205
 Vibration     4          0.602              1.956              3.650
 Vibration     5          0.603              1.953              3.565
 Vibration     6          0.605              1.947              3.396
 Vibration     7          0.606              1.942              3.292
 Vibration     8          0.614              1.918              2.862
 Vibration     9          0.618              1.903              2.676
 Vibration    10          0.625              1.880              2.439
 Vibration    11          0.632              1.858              2.262
 Vibration    12          0.636              1.846              2.173
 Vibration    13          0.649              1.803              1.920
 Vibration    14          0.659              1.775              1.786
 Vibration    15          0.661              1.769              1.756
 Vibration    16          0.673              1.732              1.608
 Vibration    17          0.695              1.667              1.398
 Vibration    18          0.698              1.656              1.367
 Vibration    19          0.724              1.585              1.187
 Vibration    20          0.751              1.509              1.032
 Vibration    21          0.792              1.402              0.854
 Vibration    22          0.801              1.379              0.821
 Vibration    23          0.810              1.359              0.793
 Vibration    24          0.875              1.205              0.609
 Vibration    25          0.901              1.150              0.554
 Vibration    26          0.938              1.072              0.483
 Vibration    27          0.972              1.005              0.428

                           ! Non-Optimized Parameters !
 Normal termination of Gaussian 16 at Fri May 24 08:50:46 2019.
