 Gaussian 16, Revision A.03,
 Gaussian 16:  ES64L-G16RevA.03 25-Dec-2016

 -------------------------------------------------------------------
 #p b3lyp 6-31g* opt freq=noraman scrf=(pcm,solvent=tetrahydrofuran)
 -------------------------------------------------------------------

 -----
 title
 -----
 Symbolic Z-matrix:
 Charge =  1 Multiplicity = 1

 SCF Done:  E(RB3LYP) =  -768.317189059     A.U. after   14 cycles
 Optimization completed.
    -- Stationary point found.
 Normal termination of Gaussian 16 at Fri May 24 08:33:31 2019.

 --------------------------------------------------------------------
 #P Geom=AllCheck Guess=TCheck SCRF=Check GenChk RB3LYP/6-31G(d) Freq
 --------------------------------------------------------------------

 Structure from the checkpoint file:  "/scratch/Gau-6498.chk"
 -----
 title
 -----
 Charge =  1 Multiplicity = 1

                         Standard orientation:
 ---------------------------------------------------------------------
 Center     Atomic      Atomic             Coordinates (Angstroms)
 Number     Number       Type             X           Y           Z
 ---------------------------------------------------------------------
      1          6           0       -1.609438   -0.690884    0.258698
      2          6           0       -1.764294    0.712995   -0.419101
      3          6           0       -0.755272    0.839508   -1.518361
      4          6           0        0.888880    0.017801    0.028865
      5          6           0       -0.112907   -1.064438    0.499465
      6          1           0       -0.973551    1.185161   -2.529848
      7          1           0       -2.780807    0.842445   -0.802389
      8          1           0       -2.097234   -0.571895    1.228728
      9          1           0        0.876341    0.898872    0.668994
     10          1           0        0.093735   -1.971045   -0.076590
     11          8           0        0.454104    0.553768   -1.317401
     12          8           0       -1.433384    1.666629    0.576132
     13          8           0       -2.351893   -1.684983   -0.401172
     14          8           0        0.161593   -1.443983    1.831513
     15          6           0        2.297173   -0.490309   -0.173374
     16          1           0        2.324023   -1.197847   -1.018224
     17          1           0        2.575873   -1.046746    0.735471
     18          8           0        3.134164    0.617857   -0.393846
     19          6           0       -1.963765    2.989105    0.360077
     20          1           0       -1.728486    3.546182    1.267213
     21          1           0       -1.495108    3.478971   -0.500065
     22          1           0       -3.049340    2.945966    0.220810
     23          6           0       -1.976242   -2.013837   -1.730769
     24          1           0       -0.981337   -2.471191   -1.793741
     25          1           0       -2.717766   -2.727235   -2.092588
     26          1           0       -2.002491   -1.130829   -2.394714
     27          6           0        0.085042   -0.438807    2.850753
     28          1           0        0.041977   -0.982347    3.795830
     29          1           0        0.974763    0.202496    2.852716
     30          1           0       -0.807328    0.188814    2.754826
     31          6           0        4.491389    0.246173   -0.605114
     32          1           0        5.049661    1.170630   -0.764262
     33          1           0        4.901018   -0.280204    0.268593
     34          1           0        4.596001   -0.398342   -1.489416
 ---------------------------------------------------------------------

 SCF Done:  E(RB3LYP) =  -768.317189059     A.U. after    1 cycles

 The electronic state is 1-A.
 Alpha  occ. eigenvalues --  -19.33012 -19.22349 -19.20317 -19.19539 -19.18173
 Alpha  occ. eigenvalues --  -10.39570 -10.31911 -10.31705 -10.30069 -10.29980
 Alpha  occ. eigenvalues --  -10.27533 -10.26766 -10.26657 -10.25281 -10.24531
 Alpha  occ. eigenvalues --   -1.21757  -1.10155  -1.08672  -1.07289  -1.06537
 Alpha  occ. eigenvalues --   -0.87069  -0.85327  -0.77637  -0.75921  -0.74314
 Alpha  occ. eigenvalues --   -0.71766  -0.69063  -0.68600  -0.65956  -0.61468
 Alpha  occ. eigenvalues --   -0.61331  -0.58802  -0.57219  -0.54930  -0.53459
 Alpha  occ. eigenvalues --   -0.52425  -0.51361  -0.50897  -0.50045  -0.49751
 Alpha  occ. eigenvalues --   -0.49066  -0.48365  -0.47742  -0.46263  -0.45558
 Alpha  occ. eigenvalues --   -0.44403  -0.43225  -0.42378  -0.42034  -0.41711
 Alpha  occ. eigenvalues --   -0.40194  -0.37841  -0.36060  -0.35391  -0.35037
 Alpha  occ. eigenvalues --   -0.33502  -0.31291  -0.29129  -0.28598
 Alpha virt. eigenvalues --   -0.16203   0.00524   0.03828   0.05140   0.06434
 Alpha virt. eigenvalues --    0.06589   0.07523   0.08622   0.09545   0.10284
 Alpha virt. eigenvalues --    0.10722   0.11367   0.11751   0.12126   0.12701

 Mulliken charges:
               1
     1  C    0.100599
     2  C    0.022534
     3  C    0.269046
     4  C    0.031693
     5  C    0.096754
     6  H    0.284544
     7  H    0.219644
     8  H    0.217263
     9  H    0.243281
    10  H    0.197940
    11  O   -0.298529
    12  O   -0.468530
    13  O   -0.460615
    14  O   -0.480489
    15  C   -0.021245
    16  H    0.167308
    17  H    0.183988
    18  O   -0.483760
    19  C   -0.230501
    20  H    0.202483
    21  H    0.176698
    22  H    0.182499
    23  C   -0.246947
    24  H    0.177520
    25  H    0.208078
    26  H    0.148792
    27  C   -0.245554
    28  H    0.190675
    29  H    0.167381
    30  H    0.170785
    31  C   -0.211815
    32  H    0.177689
    33  H    0.156126
    34  H    0.154666
 Sum of Mulliken charges =   1.00000

 Dipole moment (field-independent basis, Debye):
    X=             -2.2162    Y=              3.1316    Z=             -4.2086  Tot=              5.6948
 Quadrupole moment (field-independent basis, Debye-Ang):
   XX=            -66.5890   YY=            -76.3493   ZZ=            -70.8032
   XY=            -11.4057   XZ=              6.0544   YZ=              3.2494

  Exact polarizability: 155.701   0.029 141.347   6.483   2.404 142.655
 Approx polarizability: 170.088   2.808 164.313   3.811  -1.310 167.667

                      1                      2                      3
                      A                      A                      A
 Frequencies --     46.6813                58.9034                73.2465
 Red. masses --      3.6795                 3.0459                 3.7655
 Frc consts  --      0.0047                 0.0062                 0.0119
 IR Inten    --      0.5907                 2.7995                 0.2891

                      4                      5                      6
                      A                      A                      A
 Frequencies --     87.3559                96.2112               121.0015
 Red. masses --      3.3794                 2.3066                 2.1378
 Frc consts  --      0.0152                 0.0126                 0.0184
 IR Inten    --      1.3703                 8.9172                 6.0413

                      7                      8                      9
                      A                      A                      A
 Frequencies --    146.8568               157.7307               165.6606
 Red. masses --      2.4726                 2.2465                 2.1283
 Frc consts  --      0.0314                 0.0329                 0.0344
 IR Inten    --      2.5143                 2.0788                 2.7144

                     10                     11                     12
                      A                      A                      A
 Frequencies --    174.7080               209.4438               220.8382
 Red. masses --      1.2888                 2.0376                 1.9180
 Frc consts  --      0.0232                 0.0527                 0.0551
 IR Inten    --      2.2297                10.6903                 4.2668

                     13                     14                     15
                      A                      A                      A
 Frequencies --    236.5394               254.4208               267.1400
 Red. masses --      1.6858                 2.5624                 1.9547
 Frc consts  --      0.0556                 0.0977                 0.0822
 IR Inten    --      5.9589                13.4467                 3.8962

                     16                     17                     18
                      A                      A                      A
 Frequencies --    279.0631               293.7422               326.8638
 Red. masses --      3.4893                 3.5928                 2.9857
 Frc consts  --      0.1601                 0.1826                 0.1879
 IR Inten    --      1.3340                 1.8026                13.0147

                     19                     20                     21
                      A                      A                      A
 Frequencies --    336.4659               354.1905               369.9598
 Red. masses --      3.6085                 3.4713                 2.7438
 Frc consts  --      0.2407                 0.2566                 0.2213
 IR Inten    --      9.6397                 6.8751                 8.2196

                     22                     23                     24
                      A                      A                      A
 Frequencies --    454.0005               488.1490               511.3748
 Red. masses --      4.9519                 4.4008                 4.3302
 Frc consts  --      0.6014                 0.6179                 0.6672
 IR Inten    --      7.9192                24.3774                 7.1354

                     25                     26                     27
                      A                      A                      A
 Frequencies --    544.7523               569.5523               627.8706
 Red. masses --      3.2708                 3.6984                 3.8729
 Frc consts  --      0.5719                 0.7069                 0.8996
 IR Inten    --     27.6873                 2.9389                19.6893

                     28                     29                     30
                      A                      A                      A
 Frequencies --    733.9534               836.9665               888.3522
 Red. masses --      3.8452                 4.6998                 3.6914
 Frc consts  --      1.2204                 1.9398                 1.7164
 IR Inten    --     51.6954                42.7897                26.6186

                     31                     32                     33
                      A                      A                      A
 Frequencies --    904.1484               935.2039               947.2306
 Red. masses --      3.0230                 4.2110                 4.3001
 Frc consts  --      1.4560                 2.1699                 2.2732
 IR Inten    --     77.5387                74.3537                14.2186

                     34                     35                     36
                      A                      A                      A
 Frequencies --    968.9566               996.8794              1009.3744
 Red. masses --      4.1640                 2.7149                 3.0925
 Frc consts  --      2.3034                 1.5896                 1.8564
 IR Inten    --     33.2351                30.7386                23.6098

                     37                     38                     39
                      A                      A                      A
 Frequencies --   1022.8091              1070.3534              1094.5202
 Red. masses --      2.1506                 3.2064                 3.5385
 Frc consts  --      1.3255                 2.1644                 2.4976
 IR Inten    --     19.4783                 1.1917                57.0761

                     40                     41                     42
                      A                      A                      A
 Frequencies --   1112.3321              1123.5969              1147.2072
 Red. masses --      4.2888                 3.7348                 2.9321
 Frc consts  --      3.1265                 2.7780                 2.2736
 IR Inten    --    121.2504               234.7740               122.7618

                     43                     44                     45
                      A                      A                      A
 Frequencies --   1162.5824              1165.8319              1177.2553
 Red. masses --      2.6770                 2.8331                 1.4389
 Frc consts  --      2.1318                 2.2688                 1.1749
 IR Inten    --     33.1635               101.9942                69.7096

                     46                     47                     48
                      A                      A                      A
 Frequencies --   1181.1119              1190.7718              1193.0128
 Red. masses --      1.3029                 1.3081                 1.3463
 Frc consts  --      1.0709                 1.0928                 1.1290
 IR Inten    --      8.4534                 3.6715                 6.0260

                     49                     50                     51
                      A                      A                      A
 Frequencies --   1214.9815              1228.0355              1230.4865
 Red. masses --      1.4393                 1.6118                 1.5513
 Frc consts  --      1.2518                 1.4321                 1.3839
 IR Inten    --      2.7722                54.5403                60.4579

                     52                     53                     54
                      A                      A                      A
 Frequencies --   1236.3695              1238.1534              1269.2002
 Red. masses --      1.6833                 1.4049                 1.3651
 Frc consts  --      1.5160                 1.2690                 1.2956
 IR Inten    --     35.3627                18.2967                30.1377

                     55                     56                     57
                      A                      A                      A
 Frequencies --   1294.9852              1329.7740              1352.5105
 Red. masses --      1.1834                 1.2659                 1.2016
 Frc consts  --      1.1693                 1.3189                 1.2951
 IR Inten    --     11.8553                 2.2610                33.5357

                     58                     59                     60
                      A                      A                      A
 Frequencies --   1373.4300              1381.8975              1399.8864
 Red. masses --      1.2882                 1.2404                 1.2697
 Frc consts  --      1.4317                 1.3956                 1.4660
 IR Inten    --      7.2117                14.6051                 2.5879

                     61                     62                     63
                      A                      A                      A
 Frequencies --   1425.4530              1435.7777              1451.8452
 Red. masses --      1.3854                 1.2417                 1.4460
 Frc consts  --      1.6585                 1.5081                 1.7958
 IR Inten    --     19.7248                18.3109                32.0261

                     64                     65                     66
                      A                      A                      A
 Frequencies --   1493.2577              1496.4029              1501.2458
 Red. masses --      1.1256                 1.0954                 1.1327
 Frc consts  --      1.4787                 1.4451                 1.5040
 IR Inten    --      3.9421                 9.0382                 1.3205

                     67                     68                     69
                      A                      A                      A
 Frequencies --   1502.7151              1510.3393              1513.0031
 Red. masses --      1.1179                 1.0459                 1.0588
 Frc consts  --      1.4873                 1.4056                 1.4280
 IR Inten    --      2.8808                 9.1972                14.9445

                     70                     71                     72
                      A                      A                      A
 Frequencies --   1518.5587              1521.1535              1522.4954
 Red. masses --      1.0979                 1.0761                 1.0561
 Frc consts  --      1.4917                 1.4670                 1.4423
 IR Inten    --      8.4851                 2.0532                20.3639

                     73                     74                     75
                      A                      A                      A
 Frequencies --   1524.6993              1532.7386              1536.7501
 Red. masses --      1.0673                 1.0507                 1.0532
 Frc consts  --      1.4619                 1.4543                 1.4654
 IR Inten    --     25.7822                12.4275                18.2653

                     76                     77                     78
                      A                      A                      A
 Frequencies --   1542.6833              1629.1772              2966.8685
 Red. masses --      1.0967                 5.6989                 1.0560
 Frc consts  --      1.5377                 8.9120                 5.4766
 IR Inten    --      2.6366               161.8126               113.5735

                     79                     80                     81
                      A                      A                      A
 Frequencies --   3002.1799              3018.6063              3039.9198
 Red. masses --      1.0551                 1.0371                 1.1042
 Frc consts  --      5.6029                 5.5679                 6.0119
 IR Inten    --     35.5652                67.5980                40.7665

                     82                     83                     84
                      A                      A                      A
 Frequencies --   3047.7150              3053.6806              3071.8963
 Red. masses --      1.0349                 1.0324                 1.1067
 Frc consts  --      5.6635                 5.6719                 6.1529
 IR Inten    --     38.7093                55.4247                58.0289

                     85                     86                     87
                      A                      A                      A
 Frequencies --   3078.7654              3098.9490              3113.3424
 Red. masses --      1.0818                 1.0851                 1.0875
 Frc consts  --      6.0414                 6.1395                 6.2107
 IR Inten    --     48.1431                17.8510                18.3847

                     88                     89                     90
                      A                      A                      A
 Frequencies --   3114.4425              3125.5612              3126.7128
 Red. masses --      1.1034                 1.0998                 1.0951
 Frc consts  --      6.3056                 6.3301                 6.3079
 IR Inten    --     33.4018                24.0376                10.9066

                     91                     92                     93
                      A                      A                      A
 Frequencies --   3158.3407              3167.2666              3171.2153
 Red. masses --      1.0995                 1.1027                 1.0981
 Frc consts  --      6.4618                 6.5175                 6.5067
 IR Inten    --     29.1434                20.0002                16.4833

                     94                     95                     96
                      A                      A                      A
 Frequencies --   3175.0388              3183.9084              3195.4670
 Red. masses --      1.0858                 1.1032                 1.0949
 Frc consts  --      6.4491                 6.5890                 6.5870
 IR Inten    --      0.7900                 9.3659                 2.9064

 - Thermochemistry -
 -------------------
 Temperature   298.150 Kelvin.  Pressure   1.00000 Atm.
 Atom     1 has atomic number  6 and mass  12.00000

 Molecular mass:   219.12325 amu.
 Principal axes and moments of inertia in atomic units:
                           1         2         3
     Eigenvalues --  2553.083314338.725644585.23494
           X            0.99966  -0.02587   0.00315
           Y            0.02515   0.98913   0.14490
           Z           -0.00687  -0.14478   0.98944
 This molecule is an asymmetric top.
 Rotational symmetry number  1.
 Warning -- assumption of classical behavior for rotation
           may cause significant error
 Rotational temperatures (Kelvin)      0.03393     0.01996     0.01889
 Rotational constants (GHZ):           0.70689     0.41596     0.39360
 Zero-point vibrational energy     774301.2 (Joules/Mol)
                                  185.06243 (Kcal/Mol)
 Warning -- explicit consideration of  26 degrees of freedom as
           vibrations may cause significant error
 Vibrational temperatures:     67.16    84.75   105.39   125.69   138.43
          (Kelvin)            174.09   211.29   226.94   238.35   251.37
                              301.34   317.74   340.33   366.05   384.35
                              401.51   422.63   470.28   484.10   509.60
                              532.29   653.21   702.34   735.75   783.78
                              819.46   903.37  1056.00  1204.21  1278.14
                             1300.87  1345.55  1362.85  1394.11  1434.29
                             1452.26  1471.59  1540.00  1574.77  1600.40
                             1616.61  1650.58  1672.70  1677.37  1693.81
                             1699.36  1713.25  1716.48  1748.09  1766.87
                             1770.40  1778.86  1781.43  1826.10  1863.19
                             1913.25  1945.96  1976.06  1988.24  2014.12
                             2050.91  2065.76  2088.88  2148.46  2152.99
                             2159.96  2162.07  2173.04  2176.87  2184.87
                             2188.60  2190.53  2193.70  2205.27  2211.04
                             2219.58  2344.02  4268.66  4319.47  4343.10
                             4373.77  4384.98  4393.57  4419.77  4429.66
                             4458.70  4479.41  4480.99  4496.99  4498.64
                             4544.15  4556.99  4562.67  4568.17  4580.93
                             4597.56

 Zero-point correction=                           0.294916 (Hartree/Particle)
 Thermal correction to Energy=                    0.311942
 Thermal correction to Enthalpy=                  0.312887
 Thermal correction to Gibbs Free Energy=         0.250527
 Sum of electronic and zero-point Energies=           -768.022273
 Sum of electronic and thermal Energies=              -768.005247
 Sum of electronic and thermal Enthalpies=            -768.004302
 Sum of electronic and thermal Free Energies=         -768.066662

                     E (Thermal)             CV                S
                      KCal/Mol        Cal/Mol-Kelvin    Cal/Mol-Kelvin
 Total                  195.747             61.529            131.246
 Electronic               0.000              0.000              0.000
 Translational            0.889              2.981             42.056
 Rotational               0.889              2.981             32.296
 Vibrational            193.969             55.567             56.894
 Vibration     1          0.595              1.979              4.953
 Vibration     2          0.596              1.974              4.494
 Vibration     3          0.599              1.967              4.064
 Vibration     4          0.601              1.958              3.718
 Vibration     5          0.603              1.952              3.530
 Vibration     6          0.609              1.932              3.084
 Vibration     7          0.617              1.906              2.713
 Vibration     8          0.621              1.894              2.577
 Vibration     9          0.624              1.885              2.484
 Vibration    10          0.627              1.874              2.384
 Vibration    11          0.642              1.826              2.049
 Vibration    12          0.648              1.809              1.952
 Vibration    13          0.655              1.785              1.829
 Vibration    14          0.665              1.755              1.700
 Vibration    15          0.672              1.733              1.615
 Vibration    16          0.679              1.712              1.539
 Vibration    17          0.689              1.685              1.452
 Vibration    18          0.711              1.622              1.276
 Vibration    19          0.717              1.603              1.229
 Vibration    20          0.730              1.567              1.147
 Vibration    21          0.742              1.534              1.080
 Vibration    22          0.812              1.352              0.784
 Vibration    23          0.844              1.276              0.688
 Vibration    24          0.866              1.225              0.630
 Vibration    25          0.900              1.151              0.555
 Vibration    26          0.926              1.097              0.505

                           ! Non-Optimized Parameters !
 Normal termination of Gaussian 16 at Fri May 24 08:57:26 2019.
