 Gaussian 16, Revision A.03,
 Gaussian 16:  ES64L-G16RevA.03 25-Dec-2016

 ----------------------------------------------------------------------
 #p b3lyp 6-31g* opt=(maxstep=1,calcfc) freq=noraman scrf=(pcm,solvent=
 tetrahydrofuran)
 ----------------------------------------------------------------------

 -----
 title
 -----
 Symbolic Z-matrix:
 Charge =  1 Multiplicity = 1

 SCF Done:  E(RB3LYP) =  -768.332807617     A.U. after   13 cycles
 SCF Done:  E(RB3LYP) =  -768.332807586     A.U. after    6 cycles
 Optimization completed.
    -- Stationary point found.
 Normal termination of Gaussian 16 at Sat May 25 18:26:53 2019.

 --------------------------------------------------------------------
 #P Geom=AllCheck Guess=TCheck SCRF=Check GenChk RB3LYP/6-31G(d) Freq
 --------------------------------------------------------------------

 Structure from the checkpoint file:  "/scratch/Gau-25702.chk"
 -----
 title
 -----
 Charge =  1 Multiplicity = 1

                         Standard orientation:
 ---------------------------------------------------------------------
 Center     Atomic      Atomic             Coordinates (Angstroms)
 Number     Number       Type             X           Y           Z
 ---------------------------------------------------------------------
      1          6           0        0.482973    0.115322    0.878279
      2          6           0        0.486887    1.044337   -0.376456
      3          6           0        0.143427    0.368803   -1.672400
      4          6           0       -0.567708   -1.646444   -0.651004
      5          6           0        0.441069   -1.366583    0.459762
      6          1           0        0.316879    0.909398   -2.602703
      7          1           0       -0.219852    1.867862   -0.217759
      8          1           0        1.434711    0.306326    1.390054
      9          1           0       -0.443866   -2.670603   -0.998319
     10          1           0        0.154748   -1.969285    1.332191
     11          8           0       -0.175968   -0.837600   -1.843363
     12          8           0        1.802239    1.503857   -0.651303
     13          8           0       -0.602929    0.351743    1.740589
     14          8           0        1.690331   -1.759802   -0.076704
     15          6           0       -2.047390   -1.320383   -0.402971
     16          1           0       -2.290081   -1.621325    0.624724
     17          1           0       -2.671974   -1.900802   -1.094666
     18          8           0       -2.235704    0.062489   -0.604216
     19          6           0        1.900644    2.888295   -1.015483
     20          1           0        1.358772    3.105187   -1.944302
     21          1           0        1.510575    3.522366   -0.210532
     22          1           0        2.962720    3.085395   -1.164280
     23          6           0       -0.457742    1.495133    2.580005
     24          1           0        0.459923    1.428623    3.179206
     25          1           0       -0.441280    2.429466    2.002342
     26          1           0       -1.326100    1.505586    3.240783
     27          6           0        2.664191   -2.149763    0.892150
     28          1           0        2.930741   -1.324779    1.564419
     29          1           0        2.304074   -2.998498    1.487770
     30          1           0        3.550113   -2.449142    0.329828
     31          6           0       -3.421662    0.577503   -0.003195
     32          1           0       -4.312303    0.078291   -0.405738
     33          1           0       -3.389320    0.453431    1.085771
     34          1           0       -3.460354    1.639689   -0.250933
 ---------------------------------------------------------------------

 SCF Done:  E(RB3LYP) =  -768.332807586     A.U. after    1 cycles

 The electronic state is 1-A.
 Alpha  occ. eigenvalues --  -19.31611 -19.21438 -19.19484 -19.19078 -19.19063
 Alpha  occ. eigenvalues --  -10.38660 -10.31341 -10.31003 -10.29044 -10.28864
 Alpha  occ. eigenvalues --  -10.28106 -10.26239 -10.25265 -10.25141 -10.25116
 Alpha  occ. eigenvalues --   -1.20771  -1.09423  -1.07929  -1.07359  -1.06748
 Alpha  occ. eigenvalues --   -0.86611  -0.84497  -0.77249  -0.74493  -0.73895
 Alpha  occ. eigenvalues --   -0.70637  -0.69345  -0.68202  -0.66255  -0.60818
 Alpha  occ. eigenvalues --   -0.58729  -0.57596  -0.57122  -0.54292  -0.53442
 Alpha  occ. eigenvalues --   -0.52614  -0.51709  -0.50232  -0.49930  -0.49182
 Alpha  occ. eigenvalues --   -0.47672  -0.47273  -0.46709  -0.46455  -0.45796
 Alpha  occ. eigenvalues --   -0.44427  -0.43148  -0.42617  -0.41337  -0.39648
 Alpha  occ. eigenvalues --   -0.38997  -0.37586  -0.36418  -0.36032  -0.35012
 Alpha  occ. eigenvalues --   -0.32074  -0.30177  -0.30106  -0.28564
 Alpha virt. eigenvalues --   -0.13619   0.01380   0.04002   0.04889   0.06052
 Alpha virt. eigenvalues --    0.07634   0.08143   0.08868   0.09828   0.10645
 Alpha virt. eigenvalues --    0.11093   0.11295   0.12355   0.13076   0.13278

 Mulliken charges:
               1
     1  C    0.127216
     2  C    0.054494
     3  C    0.302864
     4  C    0.038548
     5  C    0.071087
     6  H    0.261349
     7  H    0.227548
     8  H    0.186807
     9  H    0.234002
    10  H    0.191805
    11  O   -0.300564
    12  O   -0.466990
    13  O   -0.482864
    14  O   -0.488863
    15  C   -0.019624
    16  H    0.188369
    17  H    0.181940
    18  O   -0.491479
    19  C   -0.234246
    20  H    0.172944
    21  H    0.178787
    22  H    0.198636
    23  C   -0.224900
    24  H    0.164625
    25  H    0.156361
    26  H    0.185223
    27  C   -0.222382
    28  H    0.161910
    29  H    0.164365
    30  H    0.185781
    31  C   -0.211684
    32  H    0.163955
    33  H    0.167638
    34  H    0.177342
 Sum of Mulliken charges =   1.00000

 Dipole moment (field-independent basis, Debye):
    X=             -1.2556    Y=              1.6555    Z=             -0.6101  Tot=              2.1655
 Quadrupole moment (field-independent basis, Debye-Ang):
   XX=            -70.8834   YY=            -63.4275   ZZ=            -74.3438
   XY=              3.5044   XZ=              1.4583   YZ=             -3.8528

  Exact polarizability: 151.237   9.407 153.531  -2.166   0.604 132.680
 Approx polarizability: 167.149  12.279 171.145  -2.414   2.660 155.804

                      1                      2                      3
                      A                      A                      A
 Frequencies --     43.6220                55.6477                66.2056
 Red. masses --      3.3365                 2.9902                 3.5789
 Frc consts  --      0.0037                 0.0055                 0.0092
 IR Inten    --      8.5373                 1.4569                 5.4155

                      4                      5                      6
                      A                      A                      A
 Frequencies --     71.0751               104.5446               112.7498
 Red. masses --      3.5007                 2.4391                 2.4266
 Frc consts  --      0.0104                 0.0157                 0.0182
 IR Inten    --      3.4766                 1.1635                 7.4197

                      7                      8                      9
                      A                      A                      A
 Frequencies --    122.5112               135.0795               150.6461
 Red. masses --      2.5237                 2.0716                 2.9884
 Frc consts  --      0.0223                 0.0223                 0.0400
 IR Inten    --     15.7574                 5.2177                 1.4646

                     10                     11                     12
                      A                      A                      A
 Frequencies --    172.1505               186.9100               217.4468
 Red. masses --      1.4751                 1.3378                 1.6109
 Frc consts  --      0.0258                 0.0275                 0.0449
 IR Inten    --      1.1353                 0.5540                 1.9397

                     13                     14                     15
                      A                      A                      A
 Frequencies --    224.1504               240.6354               266.2170
 Red. masses --      2.2070                 1.4915                 2.7729
 Frc consts  --      0.0653                 0.0509                 0.1158
 IR Inten    --      9.4307                 2.6014                 0.9056

                     16                     17                     18
                      A                      A                      A
 Frequencies --    281.8169               288.7636               323.6935
 Red. masses --      3.2264                 3.1620                 3.0118
 Frc consts  --      0.1510                 0.1553                 0.1859
 IR Inten    --      7.4092                 6.8827                 8.3834

                     19                     20                     21
                      A                      A                      A
 Frequencies --    356.9752               369.6128               403.6784
 Red. masses --      3.9824                 4.6569                 4.4906
 Frc consts  --      0.2990                 0.3748                 0.4311
 IR Inten    --      8.5349                23.1390                 6.3026

                     22                     23                     24
                      A                      A                      A
 Frequencies --    438.3387               490.4747               519.0025
 Red. masses --      4.1377                 4.0069                 4.1251
 Frc consts  --      0.4684                 0.5679                 0.6547
 IR Inten    --      9.9592                38.1438                10.4419

                     25                     26                     27
                      A                      A                      A
 Frequencies --    556.4793               631.5988               678.0901
 Red. masses --      4.6181                 5.0265                 5.2415
 Frc consts  --      0.8426                 1.1814                 1.4200
 IR Inten    --     27.1014                10.8692                10.9027

                     28                     29                     30
                      A                      A                      A
 Frequencies --    780.0095               840.7420               855.6393
 Red. masses --      5.5125                 2.3111                 2.9240
 Frc consts  --      1.9761                 0.9625                 1.2613
 IR Inten    --     45.4563                 7.7614                17.3056

                     31                     32                     33
                      A                      A                      A
 Frequencies --    917.7226               949.6906               963.3520
 Red. masses --      3.7639                 2.6765                 4.4158
 Frc consts  --      1.8677                 1.4223                 2.4145
 IR Inten    --     19.8879                14.5938                59.7381

                     34                     35                     36
                      A                      A                      A
 Frequencies --    984.7972              1014.4647              1032.9826
 Red. masses --      2.0754                 4.7150                 3.3676
 Frc consts  --      1.1859                 2.8590                 2.1172
 IR Inten    --     19.6218                 4.0776                15.9535

                     37                     38                     39
                      A                      A                      A
 Frequencies --   1046.8445              1065.0346              1096.2697
 Red. masses --      2.4735                 2.8369                 2.7498
 Frc consts  --      1.5971                 1.8959                 1.9471
 IR Inten    --     34.0380                42.6907               113.3413

                     40                     41                     42
                      A                      A                      A
 Frequencies --   1119.9135              1135.0643              1139.8682
 Red. masses --      3.6695                 4.1531                 2.1099
 Frc consts  --      2.7116                 3.1526                 1.6152
 IR Inten    --    149.3868               226.7471                34.7767

                     43                     44                     45
                      A                      A                      A
 Frequencies --   1154.3069              1162.2751              1183.2535
 Red. masses --      3.8878                 2.3817                 1.2659
 Frc consts  --      3.0521                 1.8957                 1.0443
 IR Inten    --    256.5201                36.8951                10.0366

                     46                     47                     48
                      A                      A                      A
 Frequencies --   1183.7266              1187.8105              1189.8040
 Red. masses --      1.2777                 1.2729                 1.3344
 Frc consts  --      1.0549                 1.0581                 1.1130
 IR Inten    --      4.0658                 4.0723                 3.0513

                     49                     50                     51
                      A                      A                      A
 Frequencies --   1213.6121              1226.5397              1230.0519
 Red. masses --      1.4090                 1.5626                 1.6192
 Frc consts  --      1.2227                 1.3851                 1.4435
 IR Inten    --     18.1538                41.4146                32.2359

                     52                     53                     54
                      A                      A                      A
 Frequencies --   1232.1255              1246.0239              1287.3597
 Red. masses --      1.6442                 1.5813                 1.2861
 Frc consts  --      1.4706                 1.4465                 1.2558
 IR Inten    --     23.5749                45.4916                 4.7427

                     55                     56                     57
                      A                      A                      A
 Frequencies --   1315.1840              1327.6908              1343.5465
 Red. masses --      1.2535                 1.3214                 1.3646
 Frc consts  --      1.2775                 1.3724                 1.4513
 IR Inten    --      8.2432                11.7843                28.4139

                     58                     59                     60
                      A                      A                      A
 Frequencies --   1355.1334              1372.7013              1392.2825
 Red. masses --      1.3806                 1.2574                 1.6020
 Frc consts  --      1.4938                 1.3960                 1.8297
 IR Inten    --      1.4108                23.5457                27.3904

                     61                     62                     63
                      A                      A                      A
 Frequencies --   1421.7973              1436.1367              1442.7418
 Red. masses --      1.4136                 1.3959                 1.3091
 Frc consts  --      1.6836                 1.6962                 1.6055
 IR Inten    --     34.7351                 6.2321                53.2692

                     64                     65                     66
                      A                      A                      A
 Frequencies --   1494.4042              1496.2282              1500.2420
 Red. masses --      1.1246                 1.1525                 1.1227
 Frc consts  --      1.4797                 1.5202                 1.4888
 IR Inten    --     10.8947                 5.0092                 0.8124

                     67                     68                     69
                      A                      A                      A
 Frequencies --   1501.8432              1510.5676              1515.0365
 Red. masses --      1.1207                 1.0498                 1.0605
 Frc consts  --      1.4893                 1.4114                 1.4342
 IR Inten    --      5.3934                 7.5329                 9.5926

                     70                     71                     72
                      A                      A                      A
 Frequencies --   1515.3997              1519.8513              1522.0117
 Red. masses --      1.0589                 1.0712                 1.0547
 Frc consts  --      1.4327                 1.4579                 1.4395
 IR Inten    --     14.5966                 1.2784                10.9342

                     73                     74                     75
                      A                      A                      A
 Frequencies --   1524.5814              1528.0347              1532.6363
 Red. masses --      1.0657                 1.0613                 1.0514
 Frc consts  --      1.4594                 1.4600                 1.4551
 IR Inten    --     31.2254                15.7258                12.2873

                     76                     77                     78
                      A                      A                      A
 Frequencies --   1536.8263              1633.0105              3025.4375
 Red. masses --      1.0829                 5.0097                 1.0352
 Frc consts  --      1.5069                 7.8712                 5.5830
 IR Inten    --      2.8587               273.8323                46.7668

                     79                     80                     81
                      A                      A                      A
 Frequencies --   3033.6572              3035.5058              3039.1669
 Red. masses --      1.0430                 1.0343                 1.0351
 Frc consts  --      5.6556                 5.6149                 5.6328
 IR Inten    --     41.2681                52.7017                61.4697

                     82                     83                     84
                      A                      A                      A
 Frequencies --   3041.0116              3058.2188              3061.9848
 Red. masses --      1.0452                 1.0838                 1.0852
 Frc consts  --      5.6947                 5.9720                 5.9945
 IR Inten    --     42.9363                38.0640                20.7766

                     85                     86                     87
                      A                      A                      A
 Frequencies --   3073.9782              3081.2114              3084.0733
 Red. masses --      1.0823                 1.1089                 1.1055
 Frc consts  --      6.0258                 6.2028                 6.1952
 IR Inten    --      2.2977                42.9507                58.2395

                     88                     89                     90
                      A                      A                      A
 Frequencies --   3096.4981              3102.3527              3105.2455
 Red. masses --      1.1066                 1.1073                 1.1078
 Frc consts  --      6.2517                 6.2792                 6.2934
 IR Inten    --     54.4648                36.7423                37.9436

                     91                     92                     93
                      A                      A                      A
 Frequencies --   3163.7516              3164.5022              3165.8139
 Red. masses --      1.1001                 1.1019                 1.1010
 Frc consts  --      6.4876                 6.5016                 6.5013
 IR Inten    --     23.7438                23.1667                21.8583

                     94                     95                     96
                      A                      A                      A
 Frequencies --   3179.5350              3180.1220              3208.0540
 Red. masses --      1.1016                 1.0888                 1.0929
 Frc consts  --      6.5616                 6.4878                 6.6268
 IR Inten    --     17.3766                 2.7138                 0.6695

 - Thermochemistry -
 -------------------
 Temperature   298.150 Kelvin.  Pressure   1.00000 Atm.
 Atom     1 has atomic number  6 and mass  12.00000

 Molecular mass:   219.12325 amu.
 Principal axes and moments of inertia in atomic units:
                           1         2         3
     Eigenvalues --  2786.687933348.074513845.65517
           X            0.99998  -0.00488   0.00454
           Y            0.00502   0.99949  -0.03168
           Z           -0.00438   0.03170   0.99949
 This molecule is an asymmetric top.
 Rotational symmetry number  1.
 Warning -- assumption of classical behavior for rotation
           may cause significant error
 Rotational temperatures (Kelvin)      0.03108     0.02587     0.02252
 Rotational constants (GHZ):           0.64763     0.53904     0.46929
 Zero-point vibrational energy     775092.9 (Joules/Mol)
                                  185.25164 (Kcal/Mol)
 Warning -- explicit consideration of  25 degrees of freedom as
           vibrations may cause significant error
 Vibrational temperatures:     62.76    80.06    95.26   102.26   150.42
          (Kelvin)            162.22   176.27   194.35   216.75   247.69
                              268.92   312.86   322.50   346.22   383.03
                              405.47   415.47   465.72   513.61   531.79
                              580.80   630.67   705.68   746.73   800.65
                              908.73   975.62  1122.26  1209.64  1231.07
                             1320.40  1366.39  1386.05  1416.90  1459.59
                             1486.23  1506.18  1532.35  1577.29  1611.31
                             1633.10  1640.02  1660.79  1672.25  1702.44
                             1703.12  1708.99  1711.86  1746.12  1764.72
                             1769.77  1772.75  1792.75  1852.22  1892.26
                             1910.25  1933.06  1949.73  1975.01  2003.18
                             2045.65  2066.28  2075.78  2150.11  2152.74
                             2158.51  2160.82  2173.37  2179.80  2180.32
                             2186.73  2189.84  2193.53  2198.50  2205.12
                             2211.15  2349.54  4352.93  4364.76  4367.42
                             4372.68  4375.34  4400.09  4405.51  4422.77
                             4433.18  4437.29  4455.17  4463.59  4467.76
                             4551.93  4553.01  4554.90  4574.64  4575.49
                             4615.67

 Zero-point correction=                           0.295217 (Hartree/Particle)
 Thermal correction to Energy=                    0.312343
 Thermal correction to Enthalpy=                  0.313287
 Thermal correction to Gibbs Free Energy=         0.250332
 Sum of electronic and zero-point Energies=           -768.037590
 Sum of electronic and thermal Energies=              -768.020465
 Sum of electronic and thermal Enthalpies=            -768.019521
 Sum of electronic and thermal Free Energies=         -768.082476

                     E (Thermal)             CV                S
                      KCal/Mol        Cal/Mol-Kelvin    Cal/Mol-Kelvin
 Total                  195.998             61.140            132.500
 Electronic               0.000              0.000              0.000
 Translational            0.889              2.981             42.056
 Rotational               0.889              2.981             31.951
 Vibrational            194.221             55.178             58.492
 Vibration     1          0.595              1.980              5.087
 Vibration     2          0.596              1.975              4.606
 Vibration     3          0.598              1.970              4.263
 Vibration     4          0.598              1.968              4.123
 Vibration     5          0.605              1.946              3.368
 Vibration     6          0.607              1.939              3.221
 Vibration     7          0.610              1.930              3.060
 Vibration     8          0.613              1.918              2.872
 Vibration     9          0.618              1.902              2.664
 Vibration    10          0.626              1.877              2.412
 Vibration    11          0.632              1.858              2.258
 Vibration    12          0.646              1.814              1.980
 Vibration    13          0.649              1.804              1.925
 Vibration    14          0.658              1.778              1.798
 Vibration    15          0.672              1.735              1.621
 Vibration    16          0.681              1.707              1.523
 Vibration    17          0.685              1.695              1.481
 Vibration    18          0.708              1.628              1.291
 Vibration    19          0.732              1.561              1.135
 Vibration    20          0.742              1.535              1.081
 Vibration    21          0.769              1.462              0.949
 Vibration    22          0.799              1.387              0.832
 Vibration    23          0.846              1.271              0.682
 Vibration    24          0.874              1.208              0.612
 Vibration    25          0.912              1.126              0.531

 Optimization completed.
    -- Stationary point found.
 Normal termination of Gaussian 16 at Sat May 25 18:47:13 2019.
