 Gaussian 16, Revision A.03,
 Gaussian 16:  ES64L-G16RevA.03 25-Dec-2016

 -------------------------------------------------------------------
 #p b3lyp 6-31g* opt freq=noraman scrf=(pcm,solvent=tetrahydrofuran)
 -------------------------------------------------------------------

 -----
 title
 -----
 Symbolic Z-matrix:
 Charge =  1 Multiplicity = 1

 SCF Done:  E(RB3LYP) =  -768.324502737     A.U. after   14 cycles
 Optimization completed.
    -- Stationary point found.
 Normal termination of Gaussian 16 at Fri May 24 08:45:05 2019.

 --------------------------------------------------------------------
 #P Geom=AllCheck Guess=TCheck SCRF=Check GenChk RB3LYP/6-31G(d) Freq
 --------------------------------------------------------------------

 Structure from the checkpoint file:  "/scratch/Gau-32323.chk"
 -----
 title
 -----
 Charge =  1 Multiplicity = 1

                         Standard orientation:
 ---------------------------------------------------------------------
 Center     Atomic      Atomic             Coordinates (Angstroms)
 Number     Number       Type             X           Y           Z
 ---------------------------------------------------------------------
      1          6           0       -1.215187    0.399317   -0.319884
      2          6           0       -1.505618   -1.069893    0.085921
      3          6           0       -0.316152   -1.948374   -0.120664
      4          6           0        1.276688   -0.100053   -0.287459
      5          6           0        0.157017    0.809948    0.256796
      6          1           0       -0.454636   -3.028671   -0.185729
      7          1           0       -1.695074   -1.118376    1.175750
      8          1           0       -1.181991    0.414434   -1.413618
      9          1           0        1.467416    0.058195   -1.350545
     10          1           0        0.139803    0.697668    1.347408
     11          8           0        0.868216   -1.561001   -0.264676
     12          8           0       -2.543235   -1.654310   -0.651140
     13          8           0       -2.275532    1.257697    0.017109
     14          8           0        0.506077    2.159529    0.049996
     15          6           0        2.573000   -0.023535    0.492220
     16          1           0        2.425551   -0.421309    1.509650
     17          1           0        2.824756    1.044438    0.583412
     18          8           0        3.553730   -0.741301   -0.213002
     19          6           0       -3.822363   -1.681853    0.002291
     20          1           0       -4.497373   -2.188273   -0.688413
     21          1           0       -3.770403   -2.245524    0.941284
     22          1           0       -4.178969   -0.664637    0.189798
     23          6           0       -2.402806    1.651358    1.387845
     24          1           0       -1.574915    2.298111    1.694203
     25          1           0       -3.337946    2.210120    1.444905
     26          1           0       -2.469701    0.789164    2.064681
     27          6           0        0.305262    2.712545   -1.259410
     28          1           0       -0.758584    2.757649   -1.510705
     29          1           0        0.707162    3.725205   -1.206101
     30          1           0        0.849457    2.159371   -2.034234
     31          6           0        4.814433   -0.738381    0.447148
     32          1           0        5.199817    0.283887    0.567041
     33          1           0        4.746892   -1.211556    1.437076
     34          1           0        5.499040   -1.311282   -0.180979
 ---------------------------------------------------------------------

 SCF Done:  E(RB3LYP) =  -768.324502737     A.U. after    1 cycles

 The electronic state is 1-A.
 Alpha  occ. eigenvalues --  -19.33196 -19.20912 -19.19921 -19.19714 -19.18223
 Alpha  occ. eigenvalues --  -10.39887 -10.32289 -10.32044 -10.30154 -10.29770
 Alpha  occ. eigenvalues --  -10.27766 -10.25823 -10.25452 -10.25327 -10.24583
 Alpha  occ. eigenvalues --   -1.21781  -1.09813  -1.08457  -1.06763  -1.06566
 Alpha  occ. eigenvalues --   -0.87493  -0.86083  -0.77592  -0.75837  -0.73841
 Alpha  occ. eigenvalues --   -0.71555  -0.69053  -0.68121  -0.65691  -0.62340
 Alpha  occ. eigenvalues --   -0.60718  -0.58963  -0.55733  -0.55113  -0.53763
 Alpha  occ. eigenvalues --   -0.53042  -0.51780  -0.51205  -0.50165  -0.49365
 Alpha  occ. eigenvalues --   -0.48646  -0.47862  -0.46626  -0.45753  -0.45229
 Alpha  occ. eigenvalues --   -0.44128  -0.42928  -0.42496  -0.42044  -0.41337
 Alpha  occ. eigenvalues --   -0.40393  -0.37215  -0.36354  -0.35391  -0.34637
 Alpha  occ. eigenvalues --   -0.32867  -0.30952  -0.28994  -0.28434
 Alpha virt. eigenvalues --   -0.15410  -0.00487   0.04651   0.04910   0.06147
 Alpha virt. eigenvalues --    0.07001   0.07371   0.08393   0.09227   0.10767
 Alpha virt. eigenvalues --    0.11168   0.11642   0.11711   0.12811   0.13065

 Mulliken charges:
               1
     1  C    0.116476
     2  C    0.030451
     3  C    0.305443
     4  C    0.053258
     5  C    0.072189
     6  H    0.280367
     7  H    0.231509
     8  H    0.196156
     9  H    0.239089
    10  H    0.190948
    11  O   -0.304626
    12  O   -0.476030
    13  O   -0.477561
    14  O   -0.478713
    15  C   -0.019817
    16  H    0.166060
    17  H    0.186898
    18  O   -0.482159
    19  C   -0.232143
    20  H    0.193506
    21  H    0.171000
    22  H    0.182983
    23  C   -0.244044
    24  H    0.179989
    25  H    0.191829
    26  H    0.156850
    27  C   -0.242387
    28  H    0.180510
    29  H    0.190877
    30  H    0.163823
    31  C   -0.212125
    32  H    0.156306
    33  H    0.154307
    34  H    0.178781
 Sum of Mulliken charges =   1.00000

 Dipole moment (field-independent basis, Debye):
    X=             -0.9429    Y=             -3.4024    Z=              2.3206  Tot=              4.2251
 Quadrupole moment (field-independent basis, Debye-Ang):
   XX=            -61.4947   YY=            -73.0478   ZZ=            -80.6174
   XY=              5.9943   XZ=             -3.0794   YZ=             -4.5919

  Exact polarizability: 172.437   2.590 147.692  -5.091  -0.922 117.053
 Approx polarizability: 180.308   0.088 166.811  -3.911   1.713 146.032

                      1                      2                      3
                      A                      A                      A
 Frequencies --     29.0990                64.7424                65.9964
 Red. masses --      4.0605                 3.2497                 2.8611
 Frc consts  --      0.0020                 0.0080                 0.0073
 IR Inten    --      0.9798                 0.5877                 1.6010

                      4                      5                      6
                      A                      A                      A
 Frequencies --     76.9560                86.0675               123.7137
 Red. masses --      2.5835                 2.1844                 2.6352
 Frc consts  --      0.0090                 0.0095                 0.0238
 IR Inten    --      2.1191                13.8599                 2.0205

                      7                      8                      9
                      A                      A                      A
 Frequencies --    136.9954               141.7600               149.6004
 Red. masses --      2.7304                 2.4840                 1.5034
 Frc consts  --      0.0302                 0.0294                 0.0198
 IR Inten    --      3.9965                 5.9856                 5.9589

                     10                     11                     12
                      A                      A                      A
 Frequencies --    181.6840               198.3287               208.1221
 Red. masses --      2.3655                 1.8065                 1.9276
 Frc consts  --      0.0460                 0.0419                 0.0492
 IR Inten    --      0.4628                 5.2860                 8.3941

                     13                     14                     15
                      A                      A                      A
 Frequencies --    223.4670               238.6631               260.4997
 Red. masses --      1.4467                 1.6698                 2.1937
 Frc consts  --      0.0426                 0.0560                 0.0877
 IR Inten    --      0.7328                 3.2415                 0.9862

                     16                     17                     18
                      A                      A                      A
 Frequencies --    272.6672               289.7163               300.1691
 Red. masses --      3.8871                 3.6136                 3.4093
 Frc consts  --      0.1703                 0.1787                 0.1810
 IR Inten    --      8.0749                12.5477                 1.7627

                     19                     20                     21
                      A                      A                      A
 Frequencies --    338.1475               356.5837               417.0233
 Red. masses --      4.0447                 3.9207                 4.0390
 Frc consts  --      0.2725                 0.2937                 0.4139
 IR Inten    --      1.7269                 8.6560                 8.4617

                     22                     23                     24
                      A                      A                      A
 Frequencies --    425.7809               477.2765               519.1733
 Red. masses --      3.8035                 4.2709                 4.7837
 Frc consts  --      0.4063                 0.5732                 0.7597
 IR Inten    --      5.1886                 8.8780                13.7161

                     25                     26                     27
                      A                      A                      A
 Frequencies --    532.1767               600.9659               613.8952
 Red. masses --      3.1837                 3.3904                 3.8619
 Frc consts  --      0.5312                 0.7214                 0.8575
 IR Inten    --     22.5126                15.5023                13.1821

                     28                     29                     30
                      A                      A                      A
 Frequencies --    721.1905               744.4048               857.5671
 Red. masses --      3.8362                 3.8445                 1.9612
 Frc consts  --      1.1756                 1.2552                 0.8498
 IR Inten    --     81.7854                62.4927                11.1340

                     31                     32                     33
                      A                      A                      A
 Frequencies --    908.8630               947.6405               978.4180
 Red. masses --      5.2199                 3.7837                 4.8466
 Frc consts  --      2.5404                 2.0020                 2.7336
 IR Inten    --     24.3753                68.5104                28.9272

                     34                     35                     36
                      A                      A                      A
 Frequencies --    985.8948              1011.2670              1049.1663
 Red. masses --      3.7708                 2.6854                 2.6593
 Frc consts  --      2.1594                 1.6181                 1.7247
 IR Inten    --     42.7754                29.7821                25.2661

                     37                     38                     39
                      A                      A                      A
 Frequencies --   1069.0141              1091.2244              1104.1322
 Red. masses --      2.5946                 2.8656                 3.8917
 Frc consts  --      1.7470                 2.0105                 2.7954
 IR Inten    --     50.3107                43.6270                19.7946

                     40                     41                     42
                      A                      A                      A
 Frequencies --   1141.8561              1152.3464              1157.5569
 Red. masses --      2.4545                 3.3848                 3.4381
 Frc consts  --      1.8856                 2.6482                 2.7143
 IR Inten    --     64.6260               125.0877               136.2190

                     43                     44                     45
                      A                      A                      A
 Frequencies --   1163.1695              1169.8086              1173.8563
 Red. masses --      2.9796                 2.3956                 1.2606
 Frc consts  --      2.3752                 1.9315                 1.0234
 IR Inten    --    244.2484                24.1069                 4.4421

                     46                     47                     48
                      A                      A                      A
 Frequencies --   1184.6283              1188.0805              1191.6100
 Red. masses --      1.4142                 1.4357                 1.4711
 Frc consts  --      1.1693                 1.1940                 1.2307
 IR Inten    --     28.5923                23.9243                14.3878

                     49                     50                     51
                      A                      A                      A
 Frequencies --   1218.3584              1229.6422              1231.4915
 Red. masses --      1.6261                 1.6541                 1.5666
 Frc consts  --      1.4222                 1.4736                 1.3998
 IR Inten    --    109.1986                 6.9412                16.9874

                     52                     53                     54
                      A                      A                      A
 Frequencies --   1239.1485              1257.1511              1279.1994
 Red. masses --      1.6813                 1.5409                 1.2976
 Frc consts  --      1.5210                 1.4348                 1.2510
 IR Inten    --    109.7300                 9.8543                32.1798

                     55                     56                     57
                      A                      A                      A
 Frequencies --   1293.2841              1340.6289              1355.3401
 Red. masses --      1.2831                 1.1988                 1.3041
 Frc consts  --      1.2644                 1.2695                 1.4114
 IR Inten    --     70.5696                67.1134                 4.3394

                     58                     59                     60
                      A                      A                      A
 Frequencies --   1360.8316              1404.8933              1411.0635
 Red. masses --      1.2508                 1.3238                 1.3758
 Frc consts  --      1.3647                 1.5395                 1.6140
 IR Inten    --      0.9328                17.0679                14.3142

                     61                     62                     63
                      A                      A                      A
 Frequencies --   1421.8581              1448.7770              1468.4464
 Red. masses --      1.2266                 1.4456                 1.1717
 Frc consts  --      1.4611                 1.7877                 1.4886
 IR Inten    --      1.6005                25.1109                23.4788

                     64                     65                     66
                      A                      A                      A
 Frequencies --   1492.7583              1495.4964              1498.7340
 Red. masses --      1.1513                 1.1431                 1.1460
 Frc consts  --      1.5116                 1.5062                 1.5166
 IR Inten    --      1.4050                 0.2630                 3.1579

                     67                     68                     69
                      A                      A                      A
 Frequencies --   1503.8041              1508.0536              1509.3079
 Red. masses --      1.1442                 1.0465                 1.0564
 Frc consts  --      1.5246                 1.4023                 1.4179
 IR Inten    --      1.9274                 9.4041                 7.1666

                     70                     71                     72
                      A                      A                      A
 Frequencies --   1516.5597              1522.4017              1522.5069
 Red. masses --      1.0473                 1.0589                 1.0504
 Frc consts  --      1.4193                 1.4460                 1.4346
 IR Inten    --     10.8539                22.1906                10.1639

                     73                     74                     75
                      A                      A                      A
 Frequencies --   1524.6672              1530.7804              1536.0796
 Red. masses --      1.0503                 1.0509                 1.0492
 Frc consts  --      1.4385                 1.4509                 1.4587
 IR Inten    --      9.2163                14.3620                16.0194

                     76                     77                     78
                      A                      A                      A
 Frequencies --   1543.6687              1646.2322              2959.6746
 Red. masses --      1.1067                 7.0466                 1.0780
 Frc consts  --      1.5538                11.2516                 5.5638
 IR Inten    --      4.0707               310.6110                19.5611

                     79                     80                     81
                      A                      A                      A
 Frequencies --   2994.3422              3018.2934              3041.0493
 Red. masses --      1.0610                 1.0362                 1.0387
 Frc consts  --      5.6049                 5.5621                 5.6595
 IR Inten    --     36.6042                68.1178                34.5086

                     82                     83                     84
                      A                      A                      A
 Frequencies --   3042.1491              3052.6817              3052.9498
 Red. masses --      1.0996                 1.0353                 1.0343
 Frc consts  --      5.9955                 5.6846                 5.6796
 IR Inten    --     38.5301                77.3414                22.6253

                     85                     86                     87
                      A                      A                      A
 Frequencies --   3068.5578              3072.1793              3110.1323
 Red. masses --      1.0841                 1.1067                 1.0853
 Frc consts  --      6.0143                 6.1540                 6.1854
 IR Inten    --     15.8497                56.5096                15.7770

                     88                     89                     90
                      A                      A                      A
 Frequencies --   3116.7757              3126.8342              3130.2771
 Red. masses --      1.0995                 1.1033                 1.1053
 Frc consts  --      6.2928                 6.3554                 6.3814
 IR Inten    --     46.3766                37.9965                25.8198

                     91                     92                     93
                      A                      A                      A
 Frequencies --   3148.1010              3159.5875              3170.7768
 Red. masses --      1.0868                 1.0993                 1.1027
 Frc consts  --      6.3462                 6.4661                 6.5317
 IR Inten    --      1.9306                28.7790                18.6180

                     94                     95                     96
                      A                      A                      A
 Frequencies --   3173.1335              3180.3370              3201.2151
 Red. masses --      1.1035                 1.1039                 1.0945
 Frc consts  --      6.5462                 6.5786                 6.6085
 IR Inten    --     18.3623                17.6978                 1.4150

 - Thermochemistry -
 -------------------
 Temperature   298.150 Kelvin.  Pressure   1.00000 Atm.
 Atom     1 has atomic number  6 and mass  12.00000

 Molecular mass:   219.12325 amu.
 Principal axes and moments of inertia in atomic units:
                           1         2         3
     Eigenvalues --  2055.107544781.201196193.41938
           X            0.99998   0.00502  -0.00281
           Y           -0.00506   0.99984  -0.01714
           Z            0.00272   0.01716   0.99985
 This molecule is an asymmetric top.
 Rotational symmetry number  1.
 Warning -- assumption of classical behavior for rotation
           may cause significant error
 Rotational temperatures (Kelvin)      0.04215     0.01812     0.01398
 Rotational constants (GHZ):           0.87817     0.37747     0.29140
 Zero-point vibrational energy     774290.0 (Joules/Mol)
                                  185.05975 (Kcal/Mol)
 Warning -- explicit consideration of  27 degrees of freedom as
           vibrations may cause significant error
 Vibrational temperatures:     41.87    93.15    94.95   110.72   123.83
          (Kelvin)            178.00   197.11   203.96   215.24   261.40
                              285.35   299.44   321.52   343.38   374.80
                              392.31   416.84   431.88   486.52   513.04
                              600.00   612.60   686.69   746.97   765.68
                              864.66   883.26  1037.63  1071.03  1233.85
                             1307.65  1363.44  1407.73  1418.48  1454.99
                             1509.52  1538.07  1570.03  1588.60  1642.88
                             1657.97  1665.47  1673.54  1683.09  1688.92
                             1704.42  1709.38  1714.46  1752.95  1769.18
                             1771.84  1782.86  1808.76  1840.48  1860.75
                             1928.87  1950.03  1957.93  2021.33  2030.21
                             2045.74  2084.47  2112.77  2147.75  2151.69
                             2156.34  2163.64  2169.75  2171.56  2181.99
                             2190.40  2190.55  2193.66  2202.45  2210.08
                             2220.99  2368.56  4258.31  4308.19  4342.65
                             4375.39  4376.97  4392.13  4392.51  4414.97
                             4420.18  4474.79  4484.35  4498.82  4503.77
                             4529.42  4545.94  4562.04  4565.43  4575.80
                             4605.83

 Zero-point correction=                           0.294911 (Hartree/Particle)
 Thermal correction to Energy=                    0.312185
 Thermal correction to Enthalpy=                  0.313129
 Thermal correction to Gibbs Free Energy=         0.249536
 Sum of electronic and zero-point Energies=           -768.029591
 Sum of electronic and thermal Energies=              -768.012318
 Sum of electronic and thermal Enthalpies=            -768.011374
 Sum of electronic and thermal Free Energies=         -768.074967

                     E (Thermal)             CV                S
                      KCal/Mol        Cal/Mol-Kelvin    Cal/Mol-Kelvin
 Total                  195.899             61.616            133.843
 Electronic               0.000              0.000              0.000
 Translational            0.889              2.981             42.056
 Rotational               0.889              2.981             32.476
 Vibrational            194.122             55.655             59.310
 Vibration     1          0.593              1.984              5.890
 Vibration     2          0.597              1.971              4.307
 Vibration     3          0.597              1.970              4.269
 Vibration     4          0.599              1.965              3.967
 Vibration     5          0.601              1.959              3.748
 Vibration     6          0.610              1.929              3.042
 Vibration     7          0.614              1.916              2.845
 Vibration     8          0.615              1.911              2.780
 Vibration     9          0.618              1.903              2.677
 Vibration    10          0.630              1.865              2.311
 Vibration    11          0.637              1.842              2.149
 Vibration    12          0.641              1.828              2.060
 Vibration    13          0.649              1.805              1.931
 Vibration    14          0.657              1.781              1.813
 Vibration    15          0.669              1.745              1.658
 Vibration    16          0.676              1.724              1.579
 Vibration    17          0.686              1.693              1.476
 Vibration    18          0.693              1.673              1.416
 Vibration    19          0.718              1.599              1.221
 Vibration    20          0.732              1.562              1.137
 Vibration    21          0.780              1.433              0.902
 Vibration    22          0.788              1.414              0.873
 Vibration    23          0.834              1.300              0.717
 Vibration    24          0.874              1.208              0.612
 Vibration    25          0.887              1.179              0.582
 Vibration    26          0.959              1.030              0.448
 Vibration    27          0.973              1.002              0.426

                           ! Non-Optimized Parameters !
 Normal termination of Gaussian 16 at Fri May 24 09:24:22 2019.
