 Gaussian 16, Revision A.03,
 Gaussian 16:  ES64L-G16RevA.03 25-Dec-2016

 -------------------------------------------------------------------
 #p b3lyp 6-31g* opt freq=noraman scrf=(pcm,solvent=tetrahydrofuran)
 -------------------------------------------------------------------

 -----
 title
 -----
 Symbolic Z-matrix:
 Charge =  1 Multiplicity = 1

 SCF Done:  E(RB3LYP) =  -768.324788013     A.U. after   13 cycles
 Optimization completed.
    -- Stationary point found.
 Normal termination of Gaussian 16 at Fri May 24 08:34:32 2019.

 --------------------------------------------------------------------
 #P Geom=AllCheck Guess=TCheck SCRF=Check GenChk RB3LYP/6-31G(d) Freq
 --------------------------------------------------------------------

 Structure from the checkpoint file:  "/scratch/Gau-44089.chk"
 -----
 title
 -----
 Charge =  1 Multiplicity = 1

                         Standard orientation:
 ---------------------------------------------------------------------
 Center     Atomic      Atomic             Coordinates (Angstroms)
 Number     Number       Type             X           Y           Z
 ---------------------------------------------------------------------
      1          6           0        1.013209    1.047955    0.119121
      2          6           0        1.791407    0.062881   -0.774194
      3          6           0        0.794125   -0.434014   -1.793962
      4          6           0       -0.676623   -0.923701    0.046537
      5          6           0       -0.282191    0.419707    0.714210
      6          1           0        0.958664   -0.455452   -2.871756
      7          1           0        2.620286    0.575620   -1.267893
      8          1           0        1.669534    1.384722    0.931778
      9          1           0       -0.087230   -1.754437    0.432597
     10          1           0       -1.091642    1.118658    0.494730
     11          8           0       -0.313808   -0.893008   -1.426924
     12          8           0        2.211875   -1.055067   -0.019995
     13          8           0        0.699279    2.100464   -0.776030
     14          8           0       -0.308095    0.281039    2.118432
     15          6           0       -2.154772   -1.237609    0.088264
     16          1           0       -2.420160   -1.387690    1.146958
     17          1           0       -2.350291   -2.180114   -0.445089
     18          8           0       -2.858149   -0.162098   -0.484849
     19          6           0        3.435245   -1.669972   -0.465553
     20          1           0        4.242933   -0.930834   -0.497795
     21          1           0        3.663559   -2.435696    0.276243
     22          1           0        3.319239   -2.137966   -1.448748
     23          6           0        0.379212    3.344330   -0.151064
     24          1           0        1.214953    3.690395    0.470927
     25          1           0        0.203757    4.056621   -0.958675
     26          1           0       -0.524309    3.272313    0.467156
     27          6           0        0.680688   -0.541037    2.747571
     28          1           0        1.698102   -0.266491    2.452355
     29          1           0        0.557231   -0.372181    3.818659
     30          1           0        0.527054   -1.606854    2.539814
     31          6           0       -4.269511   -0.339434   -0.446717
     32          1           0       -4.631923   -0.425549    0.587153
     33          1           0       -4.573492   -1.234727   -1.006767
     34          1           0       -4.709821    0.544384   -0.912004
 ---------------------------------------------------------------------

 SCF Done:  E(RB3LYP) =  -768.324788013     A.U. after    1 cycles

 The electronic state is 1-A.
 Alpha  occ. eigenvalues --  -19.32911 -19.22069 -19.19494 -19.19136 -19.18296
 Alpha  occ. eigenvalues --  -10.39478 -10.31525 -10.31521 -10.29358 -10.28952
 Alpha  occ. eigenvalues --  -10.27421 -10.26557 -10.25280 -10.25010 -10.24566
 Alpha  occ. eigenvalues --   -1.21644  -1.09936  -1.07894  -1.06897  -1.06438
 Alpha  occ. eigenvalues --   -0.86676  -0.85289  -0.76793  -0.75026  -0.73757
 Alpha  occ. eigenvalues --   -0.71099  -0.69000  -0.68103  -0.66240  -0.61236
 Alpha  occ. eigenvalues --   -0.60045  -0.58492  -0.56992  -0.54240  -0.53344
 Alpha  occ. eigenvalues --   -0.52025  -0.51273  -0.50594  -0.49841  -0.49512
 Alpha  occ. eigenvalues --   -0.48471  -0.47898  -0.46626  -0.46117  -0.45474
 Alpha  occ. eigenvalues --   -0.43971  -0.43163  -0.42007  -0.41774  -0.40792
 Alpha  occ. eigenvalues --   -0.39552  -0.37308  -0.36618  -0.35428  -0.34422
 Alpha  occ. eigenvalues --   -0.32738  -0.31054  -0.28804  -0.28384
 Alpha virt. eigenvalues --   -0.15575   0.00790   0.04213   0.05584   0.06251
 Alpha virt. eigenvalues --    0.06959   0.08267   0.09478   0.10452   0.10683
 Alpha virt. eigenvalues --    0.11196   0.11958   0.12153   0.12724   0.13499

 Mulliken charges:
               1
     1  C    0.075586
     2  C    0.043794
     3  C    0.310823
     4  C    0.024692
     5  C    0.115562
     6  H    0.279927
     7  H    0.217364
     8  H    0.196318
     9  H    0.241064
    10  H    0.212404
    11  O   -0.293425
    12  O   -0.476141
    13  O   -0.497271
    14  O   -0.483033
    15  C   -0.027697
    16  H    0.180460
    17  H    0.174160
    18  O   -0.478729
    19  C   -0.229038
    20  H    0.182015
    21  H    0.199197
    22  H    0.176978
    23  C   -0.224179
    24  H    0.166720
    25  H    0.186689
    26  H    0.167265
    27  C   -0.233709
    28  H    0.165953
    29  H    0.185103
    30  H    0.160015
    31  C   -0.210107
    32  H    0.157573
    33  H    0.155597
    34  H    0.178068
 Sum of Mulliken charges =   1.00000

 Dipole moment (field-independent basis, Debye):
    X=              3.9481    Y=             -2.7968    Z=             -2.9994  Tot=              5.6926
 Quadrupole moment (field-independent basis, Debye-Ang):
   XX=            -57.2841   YY=            -71.7409   ZZ=            -75.5194
   XY=             -0.5188   XZ=             -4.6510   YZ=              1.6277

  Exact polarizability: 154.733  -3.129 137.633  -2.168  -4.149 139.284
 Approx polarizability: 164.975  -1.668 154.459  -2.066  -5.906 165.411

                      1                      2                      3
                      A                      A                      A
 Frequencies --     33.0467                59.2398                72.2223
 Red. masses --      3.7278                 3.2875                 3.0974
 Frc consts  --      0.0024                 0.0068                 0.0095
 IR Inten    --      2.0247                 1.5409                 2.6777

                      4                      5                      6
                      A                      A                      A
 Frequencies --     84.0569                88.4512               106.4217
 Red. masses --      2.0204                 2.4307                 2.3486
 Frc consts  --      0.0084                 0.0112                 0.0157
 IR Inten    --      4.6679                 1.1388                 7.2670

                      7                      8                      9
                      A                      A                      A
 Frequencies --    109.4148               130.0243               143.8487
 Red. masses --      2.2186                 3.1263                 2.0580
 Frc consts  --      0.0156                 0.0311                 0.0251
 IR Inten    --      2.0217                 8.6143                 3.4101

                     10                     11                     12
                      A                      A                      A
 Frequencies --    175.5076               178.7670               184.9345
 Red. masses --      1.8842                 1.3565                 1.4697
 Frc consts  --      0.0342                 0.0255                 0.0296
 IR Inten    --      1.6022                 1.4735                 2.8805

                     13                     14                     15
                      A                      A                      A
 Frequencies --    224.7222               250.0044               254.1971
 Red. masses --      1.4856                 3.5541                 3.1203
 Frc consts  --      0.0442                 0.1309                 0.1188
 IR Inten    --      4.3647                12.1650                 5.6949

                     16                     17                     18
                      A                      A                      A
 Frequencies --    272.0644               283.4940               323.4955
 Red. masses --      2.6115                 3.5202                 3.5860
 Frc consts  --      0.1139                 0.1667                 0.2211
 IR Inten    --      9.0396                18.9894                 3.7462

                     19                     20                     21
                      A                      A                      A
 Frequencies --    339.9582               352.2141               391.7245
 Red. masses --      3.2603                 3.0174                 4.0913
 Frc consts  --      0.2220                 0.2205                 0.3699
 IR Inten    --     12.6663                 3.4720                 8.5709

                     22                     23                     24
                      A                      A                      A
 Frequencies --    435.3318               466.5088               506.4518
 Red. masses --      4.3014                 3.6058                 4.9619
 Frc consts  --      0.4803                 0.4624                 0.7498
 IR Inten    --     11.1872                20.9728                14.4616

                     25                     26                     27
                      A                      A                      A
 Frequencies --    540.8290               591.1646               652.8502
 Red. masses --      4.9763                 4.0436                 4.4644
 Frc consts  --      0.8576                 0.8326                 1.1211
 IR Inten    --      9.9637                12.1169                19.9106

                     28                     29                     30
                      A                      A                      A
 Frequencies --    736.4227               867.0327               876.9564
 Red. masses --      4.2664                 3.7527                 3.7689
 Frc consts  --      1.3632                 1.6621                 1.7077
 IR Inten    --     44.4050                28.2798                 8.1855

                     31                     32                     33
                      A                      A                      A
 Frequencies --    883.9783               933.9491               943.3683
 Red. masses --      2.8006                 4.0728                 3.5218
 Frc consts  --      1.2894                 2.0931                 1.8466
 IR Inten    --     18.9548                83.1194                16.3191

                     34                     35                     36
                      A                      A                      A
 Frequencies --    965.5897               992.2105              1033.6809
 Red. masses --      3.6646                 2.5884                 2.2511
 Frc consts  --      2.0131                 1.5014                 1.4172
 IR Inten    --      3.7471                22.7746                27.6959

                     37                     38                     39
                      A                      A                      A
 Frequencies --   1048.5102              1055.8796              1093.5426
 Red. masses --      3.1815                 3.0288                 1.9291
 Frc consts  --      2.0608                 1.9895                 1.3592
 IR Inten    --     48.3249                71.6071                13.2975

                     40                     41                     42
                      A                      A                      A
 Frequencies --   1107.9168              1131.8431              1142.2676
 Red. masses --      4.3249                 3.5683                 4.5176
 Frc consts  --      3.1278                 2.6933                 3.4729
 IR Inten    --     87.2781                39.7204               403.5011

                     43                     44                     45
                      A                      A                      A
 Frequencies --   1153.0939              1173.3049              1180.2997
 Red. masses --      4.0899                 2.6982                 1.2692
 Frc consts  --      3.2040                 2.1885                 1.0418
 IR Inten    --    187.9912                43.3144                 4.8936

                     46                     47                     48
                      A                      A                      A
 Frequencies --   1183.0822              1188.4627              1190.2309
 Red. masses --      1.2718                 1.3025                 1.3210
 Frc consts  --      1.0488                 1.0839                 1.1026
 IR Inten    --      4.1862                 3.9852                 0.5780

                     49                     50                     51
                      A                      A                      A
 Frequencies --   1215.6582              1219.4950              1226.8868
 Red. masses --      1.4961                 1.4827                 1.5747
 Frc consts  --      1.3026                 1.2992                 1.3966
 IR Inten    --     20.5914                35.6878                61.2494

                     52                     53                     54
                      A                      A                      A
 Frequencies --   1234.7581              1266.5832              1287.4765
 Red. masses --      1.7239                 1.4795                 1.3439
 Frc consts  --      1.5486                 1.3984                 1.3124
 IR Inten    --     12.2215                11.7690                11.4160

                     55                     56                     57
                      A                      A                      A
 Frequencies --   1315.5761              1335.5443              1343.7230
 Red. masses --      1.3015                 1.2407                 1.2532
 Frc consts  --      1.3272                 1.3039                 1.3332
 IR Inten    --      6.1310                 3.4846                40.1694

                     58                     59                     60
                      A                      A                      A
 Frequencies --   1369.7621              1374.3702              1401.4761
 Red. masses --      1.2891                 1.2560                 1.4278
 Frc consts  --      1.4250                 1.3978                 1.6523
 IR Inten    --     14.5584                 5.6209                11.5516

                     61                     62                     63
                      A                      A                      A
 Frequencies --   1419.5366              1426.6445              1441.7761
 Red. masses --      1.3028                 1.3639                 1.4197
 Frc consts  --      1.5468                 1.6356                 1.7388
 IR Inten    --     22.5654                30.6291                24.3695

                     64                     65                     66
                      A                      A                      A
 Frequencies --   1493.1366              1497.1092              1499.9869
 Red. masses --      1.1250                 1.1183                 1.1391
 Frc consts  --      1.4777                 1.4768                 1.5100
 IR Inten    --      5.2337                 2.6500                 6.5099

                     67                     68                     69
                      A                      A                      A
 Frequencies --   1504.9832              1510.6211              1513.3562
 Red. masses --      1.1069                 1.0467                 1.0632
 Frc consts  --      1.4771                 1.4074                 1.4346
 IR Inten    --      0.7694                 9.1412                 7.0830

                     70                     71                     72
                      A                      A                      A
 Frequencies --   1516.5360              1516.7806              1521.0780
 Red. masses --      1.0598                 1.0653                 1.0639
 Frc consts  --      1.4360                 1.4440                 1.4503
 IR Inten    --      8.3152                17.6818                16.4562

                     73                     74                     75
                      A                      A                      A
 Frequencies --   1523.7809              1526.1963              1528.1930
 Red. masses --      1.0543                 1.0603                 1.0595
 Frc consts  --      1.4424                 1.4551                 1.4579
 IR Inten    --     23.3038                 1.8937                28.2139

                     76                     77                     78
                      A                      A                      A
 Frequencies --   1539.1470              1649.1241              3011.6742
 Red. masses --      1.0988                 6.7518                 1.0529
 Frc consts  --      1.5337                10.8188                 5.6265
 IR Inten    --      6.7901               157.7740                36.4313

                     79                     80                     81
                      A                      A                      A
 Frequencies --   3022.1808              3034.1650              3048.2667
 Red. masses --      1.0383                 1.0341                 1.0728
 Frc consts  --      5.5874                 5.6089                 5.8732
 IR Inten    --     71.5471                47.3737                34.3808

                     82                     83                     84
                      A                      A                      A
 Frequencies --   3048.8688              3055.6024              3066.2018
 Red. masses --      1.0668                 1.0319                 1.0848
 Frc consts  --      5.8426                 5.6766                 6.0091
 IR Inten    --     54.4684                55.7035                23.9418

                     85                     86                     87
                      A                      A                      A
 Frequencies --   3076.2264              3095.7158              3117.3419
 Red. masses --      1.1068                 1.1069                 1.1018
 Frc consts  --      6.1711                 6.2498                 6.3082
 IR Inten    --     52.9469                47.5321                45.5815

                     88                     89                     90
                      A                      A                      A
 Frequencies --   3124.6833              3127.6190              3130.5307
 Red. masses --      1.0963                 1.0861                 1.0994
 Frc consts  --      6.3066                 6.2595                 6.3482
 IR Inten    --     28.5387                 6.7057                11.9126

                     91                     92                     93
                      A                      A                      A
 Frequencies --   3159.2816              3165.2488              3168.3054
 Red. masses --      1.0998                 1.1035                 1.1010
 Frc consts  --      6.4674                 6.5141                 6.5116
 IR Inten    --     26.9259                24.0780                22.5256

                     94                     95                     96
                      A                      A                      A
 Frequencies --   3176.3092              3182.0099              3206.3427
 Red. masses --      1.0859                 1.1034                 1.0951
 Frc consts  --      6.4549                 6.5826                 6.6335
 IR Inten    --      1.2873                11.1264                 1.1289

 - Thermochemistry -
 -------------------
 Temperature   298.150 Kelvin.  Pressure   1.00000 Atm.
 Atom     1 has atomic number  6 and mass  12.00000

 Molecular mass:   219.12325 amu.
 Principal axes and moments of inertia in atomic units:
                           1         2         3
     Eigenvalues --  2515.283594129.014874417.92389
           X            0.99999  -0.00438   0.00237
           Y            0.00445   0.99957  -0.02902
           Z           -0.00224   0.02903   0.99958
 This molecule is an asymmetric top.
 Rotational symmetry number  1.
 Warning -- assumption of classical behavior for rotation
           may cause significant error
 Rotational temperatures (Kelvin)      0.03444     0.02098     0.01961
 Rotational constants (GHZ):           0.71751     0.43709     0.40850
 Zero-point vibrational energy     773795.1 (Joules/Mol)
                                  184.94147 (Kcal/Mol)
 Warning -- explicit consideration of  26 degrees of freedom as
           vibrations may cause significant error
 Vibrational temperatures:     47.55    85.23   103.91   120.94   127.26
          (Kelvin)            153.12   157.42   187.08   206.97   252.52
                              257.21   266.08   323.33   359.70   365.73
                              391.44   407.88   465.44   489.12   506.76
                              563.60   626.35   671.20   728.67   778.13
                              850.55   939.31  1059.55  1247.47  1261.74
                             1271.85  1343.74  1357.30  1389.27  1427.57
                             1487.24  1508.57  1519.18  1573.36  1594.05
                             1628.47  1643.47  1659.04  1688.12  1698.19
                             1702.19  1709.93  1712.48  1749.06  1754.58
                             1765.22  1776.54  1822.33  1852.39  1892.82
                             1921.55  1933.32  1970.78  1977.41  2016.41
                             2042.40  2052.62  2074.39  2148.29  2154.01
                             2158.15  2165.34  2173.45  2177.38  2181.96
                             2182.31  2188.49  2192.38  2195.86  2198.73
                             2214.49  2372.72  4333.13  4348.24  4365.49
                             4385.78  4386.64  4396.33  4411.58  4426.00
                             4454.04  4485.16  4495.72  4499.95  4504.14
                             4545.50  4554.09  4558.48  4570.00  4578.20
                             4613.21

 Zero-point correction=                           0.294723 (Hartree/Particle)
 Thermal correction to Energy=                    0.312140
 Thermal correction to Enthalpy=                  0.313084
 Thermal correction to Gibbs Free Energy=         0.249211
 Sum of electronic and zero-point Energies=           -768.030065
 Sum of electronic and thermal Energies=              -768.012648
 Sum of electronic and thermal Enthalpies=            -768.011704
 Sum of electronic and thermal Free Energies=         -768.075577

                     E (Thermal)             CV                S
                      KCal/Mol        Cal/Mol-Kelvin    Cal/Mol-Kelvin
 Total                  195.871             61.747            134.430
 Electronic               0.000              0.000              0.000
 Translational            0.889              2.981             42.056
 Rotational               0.889              2.981             32.195
 Vibrational            194.093             55.785             60.179
 Vibration     1          0.594              1.983              5.638
 Vibration     2          0.597              1.974              4.482
 Vibration     3          0.598              1.967              4.092
 Vibration     4          0.601              1.960              3.794
 Vibration     5          0.601              1.957              3.694
 Vibration     6          0.605              1.944              3.333
 Vibration     7          0.606              1.942              3.279
 Vibration     8          0.612              1.923              2.946
 Vibration     9          0.616              1.909              2.752
 Vibration    10          0.627              1.873              2.376
 Vibration    11          0.629              1.868              2.341
 Vibration    12          0.631              1.860              2.278
 Vibration    13          0.649              1.803              1.921
 Vibration    14          0.663              1.763              1.731
 Vibration    15          0.665              1.756              1.701
 Vibration    16          0.675              1.725              1.583
 Vibration    17          0.682              1.704              1.512
 Vibration    18          0.708              1.628              1.292
 Vibration    19          0.720              1.596              1.212
 Vibration    20          0.729              1.571              1.156
 Vibration    21          0.759              1.488              0.994
 Vibration    22          0.796              1.393              0.841
 Vibration    23          0.824              1.324              0.747
 Vibration    24          0.862              1.236              0.642
 Vibration    25          0.896              1.160              0.564
 Vibration    26          0.949              1.051              0.465

 Optimization completed.
    -- Stationary point found.
 Normal termination of Gaussian 16 at Fri May 24 09:02:43 2019.
