 Gaussian 16, Revision A.03,
 Gaussian 16:  ES64L-G16RevA.03 25-Dec-2016

 -------------------------------------------------------------------
 #p b3lyp 6-31g* opt freq=noraman scrf=(pcm,solvent=tetrahydrofuran)
 -------------------------------------------------------------------

 -----
 title
 -----
 Symbolic Z-matrix:
 Charge =  1 Multiplicity = 1

 SCF Done:  E(RB3LYP) =  -768.324734498     A.U. after   14 cycles
 Optimization completed.
    -- Stationary point found.
 Normal termination of Gaussian 16 at Fri May 24 08:33:00 2019.

 --------------------------------------------------------------------
 #P Geom=AllCheck Guess=TCheck SCRF=Check GenChk RB3LYP/6-31G(d) Freq
 --------------------------------------------------------------------

 Structure from the checkpoint file:  "/scratch/Gau-144244.chk"
 -----
 title
 -----
 Charge =  1 Multiplicity = 1

                         Standard orientation:
 ---------------------------------------------------------------------
 Center     Atomic      Atomic             Coordinates (Angstroms)
 Number     Number       Type             X           Y           Z
 ---------------------------------------------------------------------
      1          6           0       -1.264442    0.283734   -0.323597
      2          6           0       -1.432887   -1.041956    0.472699
      3          6           0       -0.300669   -1.967178    0.183706
      4          6           0        1.251582   -0.163689   -0.379493
      5          6           0        0.145149    0.851304   -0.034926
      6          1           0       -0.435759   -3.047724    0.268752
      7          1           0       -1.287949   -0.812505    1.545564
      8          1           0       -1.312204    0.071793   -1.396405
      9          1           0        1.420279   -0.172274   -1.457618
     10          1           0        0.226496    1.137175    1.024479
     11          8           0        0.860181   -1.605633   -0.124949
     12          8           0       -2.666697   -1.690381    0.402782
     13          8           0       -2.310285    1.191402   -0.094085
     14          8           0        0.450838    1.940485   -0.875539
     15          6           0        2.557368    0.055910    0.356747
     16          1           0        2.433087   -0.162121    1.430095
     17          1           0        2.794859    1.127151    0.257251
     18          8           0        3.538336   -0.758803   -0.231713
     19          6           0       -3.208973   -1.887684   -0.914097
     20          1           0       -2.509152   -2.427380   -1.565690
     21          1           0       -4.101914   -2.496397   -0.770526
     22          1           0       -3.485598   -0.933463   -1.371583
     23          6           0       -2.672840    1.476254    1.261341
     24          1           0       -1.837370    1.882669    1.843355
     25          1           0       -3.456120    2.232881    1.198526
     26          1           0       -3.078492    0.588428    1.760162
     27          6           0        0.118916    3.237745   -0.368778
     28          1           0        0.568947    3.400168    0.619214
     29          1           0        0.542003    3.951422   -1.077804
     30          1           0       -0.964317    3.376308   -0.311471
     31          6           0        4.814486   -0.609388    0.380229
     32          1           0        5.179102    0.423893    0.294632
     33          1           0        4.782727   -0.889054    1.442801
     34          1           0        5.496255   -1.277831   -0.148684
 ---------------------------------------------------------------------

 SCF Done:  E(RB3LYP) =  -768.324734498     A.U. after    1 cycles

 The electronic state is 1-A.
 Alpha  occ. eigenvalues --  -19.33141 -19.21016 -19.19894 -19.19536 -19.18273
 Alpha  occ. eigenvalues --  -10.39908 -10.32300 -10.32235 -10.30117 -10.29911
 Alpha  occ. eigenvalues --  -10.27944 -10.26056 -10.25596 -10.25074 -10.24622
 Alpha  occ. eigenvalues --   -1.21802  -1.09980  -1.08383  -1.06868  -1.06655
 Alpha  occ. eigenvalues --   -0.87533  -0.86094  -0.77999  -0.75154  -0.74391
 Alpha  occ. eigenvalues --   -0.71740  -0.69057  -0.68086  -0.65443  -0.62745
 Alpha  occ. eigenvalues --   -0.60699  -0.58867  -0.55740  -0.54865  -0.54312
 Alpha  occ. eigenvalues --   -0.52784  -0.51921  -0.51116  -0.50332  -0.49374
 Alpha  occ. eigenvalues --   -0.48776  -0.47867  -0.46629  -0.45685  -0.45453
 Alpha  occ. eigenvalues --   -0.44282  -0.43392  -0.42317  -0.42055  -0.40613
 Alpha  occ. eigenvalues --   -0.40237  -0.37249  -0.36107  -0.35444  -0.35147
 Alpha  occ. eigenvalues --   -0.32795  -0.31541  -0.28981  -0.28151
 Alpha virt. eigenvalues --   -0.15388  -0.00238   0.04454   0.04688   0.06554
 Alpha virt. eigenvalues --    0.07054   0.07174   0.08730   0.09351   0.10284
 Alpha virt. eigenvalues --    0.11234   0.11579   0.11841   0.12487   0.13313

 Mulliken charges:
               1
     1  C    0.119384
     2  C    0.013446
     3  C    0.287538
     4  C    0.064012
     5  C    0.075830
     6  H    0.282689
     7  H    0.252352
     8  H    0.194595
     9  H    0.247590
    10  H    0.174694
    11  O   -0.300202
    12  O   -0.469524
    13  O   -0.474254
    14  O   -0.483979
    15  C   -0.021837
    16  H    0.166446
    17  H    0.184403
    18  O   -0.479695
    19  C   -0.243272
    20  H    0.164258
    21  H    0.198635
    22  H    0.187334
    23  C   -0.247998
    24  H    0.163627
    25  H    0.194789
    26  H    0.176410
    27  C   -0.226905
    28  H    0.160808
    29  H    0.184749
    30  H    0.176512
    31  C   -0.212563
    32  H    0.156501
    33  H    0.154189
    34  H    0.179440
 Sum of Mulliken charges =   1.00000

 Dipole moment (field-independent basis, Debye):
    X=             -0.1067    Y=             -2.4190    Z=              2.6006  Tot=              3.5534
 Quadrupole moment (field-independent basis, Debye-Ang):
   XX=            -67.2895   YY=            -67.5751   ZZ=            -82.2926
   XY=              4.9821   XZ=              5.0685   YZ=              5.1850

  Exact polarizability: 165.594   1.010 152.271  -3.998   1.829 116.411
 Approx polarizability: 175.176  -1.994 169.368  -7.514   0.091 146.888

                      1                      2                      3
                      A                      A                      A
 Frequencies --     42.8495                64.1202                69.1449
 Red. masses --      3.9484                 3.2559                 3.8026
 Frc consts  --      0.0043                 0.0079                 0.0107
 IR Inten    --      0.6176                 1.8095                 0.1519

                      4                      5                      6
                      A                      A                      A
 Frequencies --     90.0365                98.8372               102.8957
 Red. masses --      2.4921                 2.3428                 2.3969
 Frc consts  --      0.0119                 0.0135                 0.0150
 IR Inten    --      3.5562                 5.2018                 4.1902

                      7                      8                      9
                      A                      A                      A
 Frequencies --    124.6356               144.2529               170.3974
 Red. masses --      2.4609                 2.1723                 1.4489
 Frc consts  --      0.0225                 0.0266                 0.0248
 IR Inten    --      8.7470                 6.2299                 1.2926

                     10                     11                     12
                      A                      A                      A
 Frequencies --    175.4503               189.9006               220.1109
 Red. masses --      2.4655                 1.6907                 1.8780
 Frc consts  --      0.0447                 0.0359                 0.0536
 IR Inten    --      1.1491                 6.8233                 5.8329

                     13                     14                     15
                      A                      A                      A
 Frequencies --    225.2102               241.9601               248.8932
 Red. masses --      1.3447                 2.7514                 1.8619
 Frc consts  --      0.0402                 0.0949                 0.0680
 IR Inten    --      3.0223                 1.2853                11.7003

                     16                     17                     18
                      A                      A                      A
 Frequencies --    278.9344               297.7880               304.8033
 Red. masses --      3.3844                 3.1266                 4.2283
 Frc consts  --      0.1551                 0.1634                 0.2315
 IR Inten    --      7.9559                 8.7277                 4.2445

                     19                     20                     21
                      A                      A                      A
 Frequencies --    341.6489               366.4774               398.7838
 Red. masses --      3.8057                 3.9901                 4.3024
 Frc consts  --      0.2617                 0.3157                 0.4031
 IR Inten    --      2.5733                10.5054                 2.8730

                     22                     23                     24
                      A                      A                      A
 Frequencies --    416.5873               480.1920               537.9510
 Red. masses --      4.5478                 3.9449                 3.9188
 Frc consts  --      0.4650                 0.5359                 0.6682
 IR Inten    --      2.8286                15.1652                12.7910

                     25                     26                     27
                      A                      A                      A
 Frequencies --    556.2498               581.3862               611.9933
 Red. masses --      3.4438                 3.5091                 3.3387
 Frc consts  --      0.6278                 0.6988                 0.7368
 IR Inten    --     17.4892                 4.3807                41.8128

                     28                     29                     30
                      A                      A                      A
 Frequencies --    716.3784               726.9809               836.4766
 Red. masses --      4.2471                 3.8281                 2.3314
 Frc consts  --      1.2842                 1.1920                 0.9611
 IR Inten    --     55.2101                79.2872                14.4422

                     31                     32                     33
                      A                      A                      A
 Frequencies --    929.8905               948.3986               976.6605
 Red. masses --      4.5528                 3.2062                 3.2228
 Frc consts  --      2.3195                 1.6991                 1.8112
 IR Inten    --     50.3509                 0.9552                26.8393

                     34                     35                     36
                      A                      A                      A
 Frequencies --    984.5292              1009.5627              1058.0149
 Red. masses --      4.6071                 3.1710                 2.9466
 Frc consts  --      2.6311                 1.9042                 1.9434
 IR Inten    --     65.7815                36.2690                14.0439

                     37                     38                     39
                      A                      A                      A
 Frequencies --   1069.0897              1095.2658              1102.3199
 Red. masses --      2.8757                 2.5698                 3.2806
 Frc consts  --      1.9365                 1.8163                 2.3486
 IR Inten    --     73.3522                28.5260                42.1894

                     40                     41                     42
                      A                      A                      A
 Frequencies --   1139.3736              1153.9053              1160.9122
 Red. masses --      3.0121                 3.2374                 2.7767
 Frc consts  --      2.3038                 2.5397                 2.2049
 IR Inten    --     86.2074               198.6052                90.9163

                     43                     44                     45
                      A                      A                      A
 Frequencies --   1168.8689              1174.4474              1181.2098
 Red. masses --      3.1123                 2.0456                 1.2858
 Frc consts  --      2.5053                 1.6624                 1.0570
 IR Inten    --    262.6687                10.1461                 5.8688

                     46                     47                     48
                      A                      A                      A
 Frequencies --   1183.4543              1188.6779              1189.8019
 Red. masses --      1.3281                 1.6144                 1.4264
 Frc consts  --      1.0959                 1.3440                 1.1897
 IR Inten    --     14.7769                48.2176                 3.3057

                     49                     50                     51
                      A                      A                      A
 Frequencies --   1222.9508              1228.5626              1233.0714
 Red. masses --      1.5471                 1.7730                 1.6859
 Frc consts  --      1.3633                 1.5768                 1.5103
 IR Inten    --     58.9666                56.6235                 8.7542

                     52                     53                     54
                      A                      A                      A
 Frequencies --   1239.1503              1252.2591              1279.3129
 Red. masses --      1.7320                 1.5900                 1.3640
 Frc consts  --      1.5669                 1.4690                 1.3153
 IR Inten    --     66.6909                33.6150                24.1491

                     55                     56                     57
                      A                      A                      A
 Frequencies --   1291.4895              1331.1508              1350.5526
 Red. masses --      1.1965                 1.2861                 1.1829
 Frc consts  --      1.1759                 1.3427                 1.2712
 IR Inten    --     50.3645                17.2760                49.9701

                     58                     59                     60
                      A                      A                      A
 Frequencies --   1374.7895              1390.6904              1404.4853
 Red. masses --      1.1811                 1.3647                 1.3024
 Frc consts  --      1.3152                 1.5551                 1.5137
 IR Inten    --      3.0306                 4.2409                 5.4169

                     61                     62                     63
                      A                      A                      A
 Frequencies --   1413.8335              1446.3473              1455.5696
 Red. masses --      1.3371                 1.2549                 1.3674
 Frc consts  --      1.5747                 1.5467                 1.7070
 IR Inten    --     23.9497                16.2145                45.1321

                     64                     65                     66
                      A                      A                      A
 Frequencies --   1496.1716              1497.3618              1498.2930
 Red. masses --      1.1401                 1.1511                 1.1553
 Frc consts  --      1.5036                 1.5206                 1.5280
 IR Inten    --      0.5191                 1.9540                 2.0527

                     67                     68                     69
                      A                      A                      A
 Frequencies --   1503.8525              1509.2879              1509.3626
 Red. masses --      1.1313                 1.0683                 1.0479
 Frc consts  --      1.5075                 1.4338                 1.4066
 IR Inten    --      1.3516                 7.3191                 8.8250

                     70                     71                     72
                      A                      A                      A
 Frequencies --   1517.3168              1518.5135              1523.0077
 Red. masses --      1.0497                 1.0493                 1.0584
 Frc consts  --      1.4238                 1.4256                 1.4464
 IR Inten    --     11.6667                 4.8491                20.5687

                     73                     74                     75
                      A                      A                      A
 Frequencies --   1526.3056              1532.6424              1535.8025
 Red. masses --      1.0515                 1.0494                 1.0495
 Frc consts  --      1.4432                 1.4524                 1.4585
 IR Inten    --     15.4069                20.7650                13.4384

                     76                     77                     78
                      A                      A                      A
 Frequencies --   1541.4926              1651.3601              2970.1541
 Red. masses --      1.1015                 6.8977                 1.0782
 Frc consts  --      1.5421                11.0826                 5.6043
 IR Inten    --      4.0438               239.6452                28.0032

                     79                     80                     81
                      A                      A                      A
 Frequencies --   3003.3482              3018.7024              3021.9280
 Red. masses --      1.0534                 1.0372                 1.0828
 Frc consts  --      5.5983                 5.5685                 5.8258
 IR Inten    --     36.9373                60.8686                20.8903

                     82                     83                     84
                      A                      A                      A
 Frequencies --   3036.6045              3039.3287              3043.0655
 Red. masses --      1.0421                 1.1050                 1.0364
 Frc consts  --      5.6613                 6.0141                 5.6548
 IR Inten    --     39.0283                47.0641                14.2785

                     85                     86                     87
                      A                      A                      A
 Frequencies --   3044.9252              3072.4498              3108.9036
 Red. masses --      1.0366                 1.1068                 1.0905
 Frc consts  --      5.6628                 6.1558                 6.2097
 IR Inten    --     77.5448                57.4501                13.8258

                     88                     89                     90
                      A                      A                      A
 Frequencies --   3109.9656              3124.3224              3126.1005
 Red. masses --      1.1019                 1.0969                 1.0981
 Frc consts  --      6.2794                 6.3086                 6.3229
 IR Inten    --     47.7458                29.8663                37.4196

                     91                     92                     93
                      A                      A                      A
 Frequencies --   3154.8108              3159.9346              3168.3800
 Red. masses --      1.0865                 1.0993                 1.1013
 Frc consts  --      6.3714                 6.4673                 6.5137
 IR Inten    --      0.6866                28.5238                17.9974

                     94                     95                     96
                      A                      A                      A
 Frequencies --   3168.7164              3182.0019              3192.8994
 Red. masses --      1.1047                 1.1033                 1.0942
 Frc consts  --      6.5354                 6.5821                 6.5721
 IR Inten    --     21.3405                15.0665                 2.1559

 - Thermochemistry -
 -------------------
 Temperature   298.150 Kelvin.  Pressure   1.00000 Atm.
 Atom     1 has atomic number  6 and mass  12.00000

 Molecular mass:   219.12325 amu.
 Principal axes and moments of inertia in atomic units:
                           1         2         3
     Eigenvalues --  2165.661534603.897016180.49445
           X            0.99996   0.00468   0.00773
           Y           -0.00484   0.99976   0.02118
           Z           -0.00763  -0.02122   0.99975
 This molecule is an asymmetric top.
 Rotational symmetry number  1.
 Warning -- assumption of classical behavior for rotation
           may cause significant error
 Rotational temperatures (Kelvin)      0.03999     0.01881     0.01401
 Rotational constants (GHZ):           0.83334     0.39200     0.29201
 Zero-point vibrational energy     773967.4 (Joules/Mol)
                                  184.98264 (Kcal/Mol)
 Warning -- explicit consideration of  27 degrees of freedom as
           vibrations may cause significant error
 Vibrational temperatures:     61.65    92.25    99.48   129.54   142.20
          (Kelvin)            148.04   179.32   207.55   245.16   252.43
                              273.22   316.69   324.03   348.13   358.10
                              401.32   428.45   438.54   491.56   527.28
                              573.76   599.38   690.89   773.99   800.32
                              836.49   880.52  1030.71  1045.96  1203.50
                             1337.91  1364.53  1405.20  1416.52  1452.54
                             1522.25  1538.18  1575.84  1585.99  1639.30
                             1660.21  1670.29  1681.74  1689.77  1699.50
                             1702.73  1710.24  1711.86  1759.55  1767.63
                             1774.11  1782.86  1801.72  1840.65  1858.17
                             1915.23  1943.14  1978.02  2000.89  2020.74
                             2034.19  2080.97  2094.24  2152.66  2154.37
                             2155.71  2163.71  2171.53  2171.64  2183.08
                             2184.80  2191.27  2196.01  2205.13  2209.68
                             2217.86  2375.94  4273.39  4321.15  4343.24
                             4347.88  4369.00  4372.92  4378.29  4380.97
                             4420.57  4473.02  4474.55  4495.20  4497.76
                             4539.07  4546.44  4558.59  4559.08  4578.19
                             4593.87

 Zero-point correction=                           0.294789 (Hartree/Particle)
 Thermal correction to Energy=                    0.311989
 Thermal correction to Enthalpy=                  0.312933
 Thermal correction to Gibbs Free Energy=         0.249898
 Sum of electronic and zero-point Energies=           -768.029946
 Sum of electronic and thermal Energies=              -768.012746
 Sum of electronic and thermal Enthalpies=            -768.011801
 Sum of electronic and thermal Free Energies=         -768.074837

                     E (Thermal)             CV                S
                      KCal/Mol        Cal/Mol-Kelvin    Cal/Mol-Kelvin
 Total                  195.776             61.592            132.669
 Electronic               0.000              0.000              0.000
 Translational            0.889              2.981             42.056
 Rotational               0.889              2.981             32.488
 Vibrational            193.999             55.631             58.125
 Vibration     1          0.595              1.980              5.123
 Vibration     2          0.597              1.971              4.326
 Vibration     3          0.598              1.969              4.178
 Vibration     4          0.602              1.956              3.659
 Vibration     5          0.604              1.950              3.477
 Vibration     6          0.605              1.947              3.399
 Vibration     7          0.610              1.928              3.027
 Vibration     8          0.616              1.909              2.747
 Vibration     9          0.625              1.879              2.431
 Vibration    10          0.627              1.873              2.376
 Vibration    11          0.633              1.854              2.229
 Vibration    12          0.647              1.810              1.958
 Vibration    13          0.650              1.803              1.917
 Vibration    14          0.658              1.776              1.788
 Vibration    15          0.662              1.765              1.738
 Vibration    16          0.679              1.713              1.540
 Vibration    17          0.691              1.678              1.429
 Vibration    18          0.696              1.665              1.390
 Vibration    19          0.721              1.592              1.204
 Vibration    20          0.739              1.541              1.094
 Vibration    21          0.765              1.473              0.967
 Vibration    22          0.780              1.434              0.904
 Vibration    23          0.837              1.294              0.710
 Vibration    24          0.893              1.166              0.570
 Vibration    25          0.912              1.126              0.531
 Vibration    26          0.938              1.072              0.483
 Vibration    27          0.971              1.006              0.429

 Optimization completed.
    -- Stationary point found.
 Normal termination of Gaussian 16 at Fri May 24 08:52:04 2019.
