 Gaussian 16, Revision A.03,
 Gaussian 16:  ES64L-G16RevA.03 25-Dec-2016

 -------------------------------------------------------------------
 #p b3lyp 6-31g* opt freq=noraman scrf=(pcm,solvent=tetrahydrofuran)
 -------------------------------------------------------------------

 -----
 title
 -----
 Symbolic Z-matrix:
 Charge =  1 Multiplicity = 1

 SCF Done:  E(RB3LYP) =  -768.324613107     A.U. after   14 cycles
 SCF Done:  E(RB3LYP) =  -768.324613105     A.U. after    6 cycles
 Optimization completed.
    -- Stationary point found.
 Normal termination of Gaussian 16 at Fri May 24 08:40:15 2019.

 --------------------------------------------------------------------
 #P Geom=AllCheck Guess=TCheck SCRF=Check GenChk RB3LYP/6-31G(d) Freq
 --------------------------------------------------------------------

 Structure from the checkpoint file:  "/scratch/Gau-19122.chk"
 -----
 title
 -----
 Charge =  1 Multiplicity = 1

                         Standard orientation:
 ---------------------------------------------------------------------
 Center     Atomic      Atomic             Coordinates (Angstroms)
 Number     Number       Type             X           Y           Z
 ---------------------------------------------------------------------
      1          6           0       -1.215714    0.499941   -0.326417
      2          6           0       -1.558760   -0.954440    0.088627
      3          6           0       -0.405624   -1.873816   -0.165127
      4          6           0        1.258482   -0.088977   -0.300500
      5          6           0        0.170445    0.851305    0.256496
      6          1           0       -0.582805   -2.945124   -0.273195
      7          1           0       -1.762454   -0.988034    1.172604
      8          1           0       -1.176874    0.509628   -1.420525
      9          1           0        1.479700    0.106915   -1.351119
     10          1           0        0.143190    0.724321    1.345432
     11          8           0        0.786633   -1.528108   -0.352406
     12          8           0       -2.627938   -1.449857   -0.674134
     13          8           0       -2.237498    1.401265    0.002873
     14          8           0        0.571747    2.189184    0.069405
     15          6           0        2.539338   -0.102084    0.508911
     16          1           0        2.352128   -0.534161    1.505812
     17          1           0        2.833240    0.949907    0.649257
     18          8           0        3.505557   -0.831878   -0.203645
     19          6           0       -3.640642   -2.146903    0.066203
     20          1           0       -3.237754   -3.041786    0.555101
     21          1           0       -4.088737   -1.486739    0.818137
     22          1           0       -4.394835   -2.441628   -0.663841
     23          6           0       -2.375751    1.785922    1.374040
     24          1           0       -1.520456    2.380116    1.711400
     25          1           0       -3.277723    2.398228    1.414523
     26          1           0       -2.511515    0.922207    2.038299
     27          6           0        0.382507    2.772073   -1.228684
     28          1           0       -0.680931    2.867040   -1.466858
     29          1           0        0.829300    3.765063   -1.163674
     30          1           0        0.893331    2.208459   -2.018522
     31          6           0        4.755125   -0.891701    0.474827
     32          1           0        5.173130    0.112844    0.630089
     33          1           0        4.656080   -1.390137    1.449559
     34          1           0        5.429529   -1.469889   -0.159460
 ---------------------------------------------------------------------

 SCF Done:  E(RB3LYP) =  -768.324613105     A.U. after    1 cycles

 The electronic state is 1-A.
 Alpha  occ. eigenvalues --  -19.33068 -19.21400 -19.19851 -19.19482 -19.18212
 Alpha  occ. eigenvalues --  -10.39734 -10.32198 -10.32012 -10.30091 -10.29840
 Alpha  occ. eigenvalues --  -10.27766 -10.26242 -10.25327 -10.25259 -10.24576
 Alpha  occ. eigenvalues --   -1.21646  -1.10027  -1.08476  -1.06734  -1.06520
 Alpha  occ. eigenvalues --   -0.87401  -0.86014  -0.77343  -0.75906  -0.73825
 Alpha  occ. eigenvalues --   -0.71818  -0.69017  -0.68201  -0.65656  -0.62237
 Alpha  occ. eigenvalues --   -0.60617  -0.59076  -0.55811  -0.55080  -0.53730
 Alpha  occ. eigenvalues --   -0.52930  -0.51802  -0.51252  -0.50115  -0.49282
 Alpha  occ. eigenvalues --   -0.48662  -0.47973  -0.46562  -0.46022  -0.45129
 Alpha  occ. eigenvalues --   -0.43835  -0.43041  -0.42579  -0.42094  -0.41306
 Alpha  occ. eigenvalues --   -0.40333  -0.37680  -0.36201  -0.35379  -0.34550
 Alpha  occ. eigenvalues --   -0.32164  -0.31139  -0.29186  -0.28616
 Alpha virt. eigenvalues --   -0.15233  -0.00381   0.04549   0.04882   0.06130
 Alpha virt. eigenvalues --    0.06822   0.07203   0.08407   0.09006   0.10432
 Alpha virt. eigenvalues --    0.11006   0.11375   0.11738   0.12937   0.13112

 Mulliken charges:
               1
     1  C    0.114864
     2  C    0.027145
     3  C    0.301400
     4  C    0.055326
     5  C    0.071775
     6  H    0.277309
     7  H    0.230496
     8  H    0.196045
     9  H    0.238201
    10  H    0.190375
    11  O   -0.305036
    12  O   -0.464851
    13  O   -0.474497
    14  O   -0.479203
    15  C   -0.019218
    16  H    0.165528
    17  H    0.186460
    18  O   -0.481827
    19  C   -0.234433
    20  H    0.172291
    21  H    0.181449
    22  H    0.198796
    23  C   -0.242047
    24  H    0.176957
    25  H    0.190891
    26  H    0.156784
    27  C   -0.242572
    28  H    0.180935
    29  H    0.190300
    30  H    0.163274
    31  C   -0.212189
    32  H    0.156441
    33  H    0.154111
    34  H    0.178717
 Sum of Mulliken charges =   1.00000

 Dipole moment (field-independent basis, Debye):
    X=             -1.0565    Y=             -4.1732    Z=              2.3924  Tot=              4.9249
 Quadrupole moment (field-independent basis, Debye-Ang):
   XX=            -63.0312   YY=            -70.2096   ZZ=            -80.8498
   XY=              8.7070   XZ=             -3.5306   YZ=             -4.2302

  Exact polarizability: 173.487   4.525 149.662  -5.253  -0.354 116.895
 Approx polarizability: 183.107   1.215 166.706  -2.854   1.322 146.374

                      1                      2                      3
                      A                      A                      A
 Frequencies --     52.3122                61.0745                70.9497
 Red. masses --      2.8646                 3.8012                 3.4027
 Frc consts  --      0.0046                 0.0084                 0.0101
 IR Inten    --      3.0379                 0.2092                 0.3442

                      4                      5                      6
                      A                      A                      A
 Frequencies --     82.8737                93.9319               127.8462
 Red. masses --      3.0374                 2.3562                 2.9113
 Frc consts  --      0.0123                 0.0122                 0.0280
 IR Inten    --      0.9888                13.6966                 3.4093

                      7                      8                      9
                      A                      A                      A
 Frequencies --    143.4317               152.9627               164.2690
 Red. masses --      2.3669                 2.7116                 2.0202
 Frc consts  --      0.0287                 0.0374                 0.0321
 IR Inten    --      2.3789                11.0348                 1.0869

                     10                     11                     12
                      A                      A                      A
 Frequencies --    196.5274               198.6807               221.1780
 Red. masses --      2.2927                 1.8704                 1.5216
 Frc consts  --      0.0522                 0.0435                 0.0439
 IR Inten    --      7.1875                 2.6338                 2.7948

                     13                     14                     15
                      A                      A                      A
 Frequencies --    231.2875               247.0893               266.1972
 Red. masses --      1.2581                 1.6587                 2.4442
 Frc consts  --      0.0397                 0.0597                 0.1020
 IR Inten    --      0.6590                 6.8494                 1.3581

                     16                     17                     18
                      A                      A                      A
 Frequencies --    275.7803               279.9523               302.8432
 Red. masses --      3.8120                 3.3427                 3.1723
 Frc consts  --      0.1708                 0.1544                 0.1714
 IR Inten    --      9.8162                 6.1866                 7.4393

                     19                     20                     21
                      A                      A                      A
 Frequencies --    337.8798               356.0464               408.1457
 Red. masses --      4.2542                 4.1525                 3.7950
 Frc consts  --      0.2861                 0.3101                 0.3725
 IR Inten    --      2.6366                 8.7062                 6.4514

                     22                     23                     24
                      A                      A                      A
 Frequencies --    441.8424               482.4326               524.1554
 Red. masses --      3.8865                 4.3586                 3.8497
 Frc consts  --      0.4470                 0.5977                 0.6232
 IR Inten    --      8.5124                 5.5488                21.8254

                     25                     26                     27
                      A                      A                      A
 Frequencies --    547.7438               608.1419               618.6817
 Red. masses --      3.2541                 3.6218                 3.8254
 Frc consts  --      0.5752                 0.7892                 0.8627
 IR Inten    --     17.2823                19.5027                 6.2682

                     28                     29                     30
                      A                      A                      A
 Frequencies --    728.1992               746.4904               863.1327
 Red. masses --      3.6906                 4.1744                 1.9341
 Frc consts  --      1.1530                 1.3705                 0.8489
 IR Inten    --     89.4289                62.7698                 3.4940

                     31                     32                     33
                      A                      A                      A
 Frequencies --    907.0578               948.8026               974.7552
 Red. masses --      5.3226                 3.8252                 4.9410
 Frc consts  --      2.5802                 2.0289                 2.7660
 IR Inten    --     25.8106                69.8439                16.6100

                     34                     35                     36
                      A                      A                      A
 Frequencies --    986.3566              1014.4829              1055.5440
 Red. masses --      3.8568                 2.6892                 2.8034
 Frc consts  --      2.2108                 1.6307                 1.8403
 IR Inten    --     42.4380                27.9764                29.6417

                     37                     38                     39
                      A                      A                      A
 Frequencies --   1071.4742              1086.2065              1103.9216
 Red. masses --      2.6553                 3.3017                 3.7309
 Frc consts  --      1.7961                 2.2951                 2.6788
 IR Inten    --     49.1675                83.0169                 8.2528

                     40                     41                     42
                      A                      A                      A
 Frequencies --   1142.1656              1152.1120              1159.3922
 Red. masses --      2.4531                 3.9263                 3.6072
 Frc consts  --      1.8855                 3.0706                 2.8568
 IR Inten    --     15.7017               198.4770               221.6260

                     43                     44                     45
                      A                      A                      A
 Frequencies --   1166.5510              1170.1453              1182.9480
 Red. masses --      2.7162                 2.3114                 1.3549
 Frc consts  --      2.1778                 1.8647                 1.1171
 IR Inten    --     41.6461               103.4454                22.0909

                     46                     47                     48
                      A                      A                      A
 Frequencies --   1186.8496              1189.8561              1193.7250
 Red. masses --      1.3598                 1.3229                 1.5683
 Frc consts  --      1.1285                 1.1035                 1.3167
 IR Inten    --     15.8641                 8.1907                19.4085

                     49                     50                     51
                      A                      A                      A
 Frequencies --   1218.5500              1232.4931              1233.8101
 Red. masses --      1.5657                 1.6366                 1.6327
 Frc consts  --      1.3697                 1.4647                 1.4644
 IR Inten    --     74.2604                15.9549                 9.5565

                     52                     53                     54
                      A                      A                      A
 Frequencies --   1241.6195              1265.1040              1285.4715
 Red. masses --      1.7153                 1.4963                 1.3126
 Frc consts  --      1.5580                 1.4110                 1.2780
 IR Inten    --    101.3822                15.3395                28.9272

                     55                     56                     57
                      A                      A                      A
 Frequencies --   1299.5481              1349.0978              1355.4519
 Red. masses --      1.2905                 1.1966                 1.2729
 Frc consts  --      1.2841                 1.2832                 1.3778
 IR Inten    --     62.5877                65.5334                 9.1386

                     58                     59                     60
                      A                      A                      A
 Frequencies --   1366.5212              1413.8294              1422.9967
 Red. masses --      1.2228                 1.2519                 1.2787
 Frc consts  --      1.3454                 1.4744                 1.5255
 IR Inten    --      3.1416                 4.4119                 3.0460

                     61                     62                     63
                      A                      A                      A
 Frequencies --   1431.1833              1452.4884              1466.7800
 Red. masses --      1.3091                 1.4096                 1.1833
 Frc consts  --      1.5798                 1.7522                 1.4999
 IR Inten    --     20.7134                31.3937                23.8118

                     64                     65                     66
                      A                      A                      A
 Frequencies --   1495.0140              1500.4605              1501.4717
 Red. masses --      1.1380                 1.1369                 1.1357
 Frc consts  --      1.4985                 1.5081                 1.5085
 IR Inten    --      1.3366                 2.9562                 1.5263

                     67                     68                     69
                      A                      A                      A
 Frequencies --   1505.5537              1509.3307              1514.6452
 Red. masses --      1.1450                 1.0456                 1.0528
 Frc consts  --      1.5291                 1.4035                 1.4231
 IR Inten    --      1.6638                 9.1378                12.3389

                     70                     71                     72
                      A                      A                      A
 Frequencies --   1520.0647              1521.7724              1523.0065
 Red. masses --      1.0528                 1.0553                 1.0589
 Frc consts  --      1.4332                 1.4399                 1.4472
 IR Inten    --      6.6807                26.5520                18.5141

                     73                     74                     75
                      A                      A                      A
 Frequencies --   1526.8911              1537.4782              1538.0169
 Red. masses --      1.0534                 1.0498                 1.0559
 Frc consts  --      1.4470                 1.4621                 1.4717
 IR Inten    --      9.8626                14.2756                12.1949

                     76                     77                     78
                      A                      A                      A
 Frequencies --   1544.8906              1640.9387              3003.9766
 Red. masses --      1.1076                 6.4452                 1.0784
 Frc consts  --      1.5575                10.2251                 5.7337
 IR Inten    --      4.1393               334.6364                14.0299

                     79                     80                     81
                      A                      A                      A
 Frequencies --   3005.0082              3019.2738              3038.4005
 Red. masses --      1.0560                 1.0365                 1.0383
 Frc consts  --      5.6181                 5.5672                 5.6475
 IR Inten    --     32.7865                66.9406                32.6920

                     82                     83                     84
                      A                      A                      A
 Frequencies --   3044.4695              3047.4769              3052.5611
 Red. masses --      1.1026                 1.0330                 1.0357
 Frc consts  --      6.0214                 5.6524                 5.6859
 IR Inten    --     50.7577                50.0120                43.5937

                     85                     86                     87
                      A                      A                      A
 Frequencies --   3070.6065              3073.1084              3099.4954
 Red. masses --      1.0841                 1.1066                 1.0859
 Frc consts  --      6.0224                 6.1573                 6.1465
 IR Inten    --      7.8898                57.3611                18.4814

                     88                     89                     90
                      A                      A                      A
 Frequencies --   3111.6536              3115.2260              3126.6331
 Red. masses --      1.1008                 1.1073                 1.1037
 Frc consts  --      6.2796                 6.3314                 6.3569
 IR Inten    --     58.1217                27.2941                36.9653

                     91                     92                     93
                      A                      A                      A
 Frequencies --   3154.2197              3159.5797              3169.6818
 Red. masses --      1.0867                 1.0994                 1.1019
 Frc consts  --      6.3702                 6.4667                 6.5225
 IR Inten    --      1.7110                28.7661                19.7370

                     94                     95                     96
                      A                      A                      A
 Frequencies --   3172.7973              3181.8183              3199.7554
 Red. masses --      1.1035                 1.1023                 1.0939
 Frc consts  --      6.5449                 6.5752                 6.5986
 IR Inten    --     18.6113                16.8254                 0.9975

 - Thermochemistry -
 -------------------
 Temperature   298.150 Kelvin.  Pressure   1.00000 Atm.
 Atom     1 has atomic number  6 and mass  12.00000

 Molecular mass:   219.12325 amu.
 Principal axes and moments of inertia in atomic units:
                           1         2         3
     Eigenvalues --  2193.812974663.933226210.58263
           X            0.99995   0.00950  -0.00356
           Y           -0.00955   0.99982  -0.01635
           Z            0.00340   0.01638   0.99986
 This molecule is an asymmetric top.
 Rotational symmetry number  1.
 Warning -- assumption of classical behavior for rotation
           may cause significant error
 Rotational temperatures (Kelvin)      0.03948     0.01857     0.01395
 Rotational constants (GHZ):           0.82265     0.38696     0.29059
 Zero-point vibrational energy     776284.6 (Joules/Mol)
                                  185.53647 (Kcal/Mol)
 Warning -- explicit consideration of  27 degrees of freedom as
           vibrations may cause significant error
 Vibrational temperatures:     75.27    87.87   102.08   119.24   135.15
          (Kelvin)            183.94   206.37   220.08   236.35   282.76
                              285.86   318.23   332.77   355.51   383.00
                              396.79   402.79   435.72   486.13   512.27
                              587.23   635.71   694.11   754.14   788.08
                              874.98   890.14  1047.72  1074.03  1241.86
                             1305.05  1365.12  1402.46  1419.15  1459.61
                             1518.69  1541.61  1562.81  1588.30  1643.32
                             1657.63  1668.11  1678.41  1683.58  1702.00
                             1707.61  1711.94  1717.50  1753.22  1773.28
                             1775.18  1786.41  1820.20  1849.51  1869.76
                             1941.05  1950.19  1966.12  2034.19  2047.37
                             2059.15  2089.81  2110.37  2150.99  2158.83
                             2160.28  2166.16  2171.59  2179.24  2187.03
                             2189.49  2191.27  2196.86  2212.09  2212.86
                             2222.75  2360.94  4322.05  4323.54  4344.06
                             4371.58  4380.31  4384.64  4391.95  4417.92
                             4421.52  4459.48  4476.98  4482.12  4498.53
                             4538.22  4545.93  4560.47  4564.95  4577.93
                             4603.73

 Zero-point correction=                           0.295671 (Hartree/Particle)
 Thermal correction to Energy=                    0.312692
 Thermal correction to Enthalpy=                  0.313637
 Thermal correction to Gibbs Free Energy=         0.251210
 Sum of electronic and zero-point Energies=           -768.028942
 Sum of electronic and thermal Energies=              -768.011921
 Sum of electronic and thermal Enthalpies=            -768.010976
 Sum of electronic and thermal Free Energies=         -768.073403

                     E (Thermal)             CV                S
                      KCal/Mol        Cal/Mol-Kelvin    Cal/Mol-Kelvin
 Total                  196.217             61.313            131.387
 Electronic               0.000              0.000              0.000
 Translational            0.889              2.981             42.056
 Rotational               0.889              2.981             32.519
 Vibrational            194.440             55.352             56.812
 Vibration     1          0.596              1.977              4.728
 Vibration     2          0.597              1.973              4.422
 Vibration     3          0.598              1.968              4.127
 Vibration     4          0.600              1.961              3.822
 Vibration     5          0.603              1.954              3.576
 Vibration     6          0.611              1.925              2.978
 Vibration     7          0.616              1.910              2.758
 Vibration     8          0.619              1.899              2.635
 Vibration     9          0.623              1.886              2.500
 Vibration    10          0.636              1.845              2.165
 Vibration    11          0.637              1.842              2.145
 Vibration    12          0.648              1.809              1.949
 Vibration    13          0.653              1.793              1.869
 Vibration    14          0.661              1.768              1.751
 Vibration    15          0.672              1.735              1.621
 Vibration    16          0.677              1.718              1.560
 Vibration    17          0.680              1.711              1.534
 Vibration    18          0.694              1.668              1.401
 Vibration    19          0.718              1.600              1.222
 Vibration    20          0.732              1.563              1.139
 Vibration    21          0.773              1.453              0.933
 Vibration    22          0.802              1.379              0.821
 Vibration    23          0.839              1.289              0.704
 Vibration    24          0.879              1.197              0.600
 Vibration    25          0.903              1.145              0.549
 Vibration    26          0.967              1.015              0.436
 Vibration    27          0.979              0.992              0.419

                           ! Non-Optimized Parameters !
 Normal termination of Gaussian 16 at Fri May 24 09:24:33 2019.
