 Gaussian 16, Revision A.03,
 Gaussian 16:  ES64L-G16RevA.03 25-Dec-2016

 -------------------------------------------------------------------
 #p b3lyp 6-31g* opt freq=noraman scrf=(pcm,solvent=tetrahydrofuran)
 -------------------------------------------------------------------

 -----
 title
 -----
 Symbolic Z-matrix:
 Charge =  1 Multiplicity = 1

 SCF Done:  E(RB3LYP) =  -768.325841957     A.U. after   13 cycles
 Optimization completed.
    -- Stationary point found.
 Normal termination of Gaussian 16 at Fri May 24 08:32:59 2019.

 --------------------------------------------------------------------
 #P Geom=AllCheck Guess=TCheck SCRF=Check GenChk RB3LYP/6-31G(d) Freq
 --------------------------------------------------------------------

 Structure from the checkpoint file:  "/scratch/Gau-75621.chk"
 -----
 title
 -----
 Charge =  1 Multiplicity = 1

                         Standard orientation:
 ---------------------------------------------------------------------
 Center     Atomic      Atomic             Coordinates (Angstroms)
 Number     Number       Type             X           Y           Z
 ---------------------------------------------------------------------
      1          6           0       -1.553251   -0.198748   -0.187236
      2          6           0       -1.379223    1.312146   -0.472289
      3          6           0       -0.334211    1.341171   -1.559527
      4          6           0        1.027144   -0.038354   -0.132757
      5          6           0       -0.226916   -0.814501    0.327363
      6          1           0       -0.447841    1.854114   -2.514329
      7          1           0       -2.316385    1.741860   -0.842182
      8          1           0       -2.340042   -0.361530    0.559404
      9          1           0        1.247916    0.737261    0.598180
     10          1           0       -0.167877   -1.843251   -0.055321
     11          8           0        0.757276    0.748338   -1.403871
     12          8           0       -0.814645    2.062454    0.577016
     13          8           0       -1.908987   -0.708694   -1.461109
     14          8           0       -0.138818   -0.798713    1.738370
     15          6           0        2.231679   -0.908120   -0.458569
     16          1           0        2.007116   -1.526110   -1.334459
     17          1           0        2.383971   -1.578131    0.401375
     18          8           0        3.382718   -0.158531   -0.759015
     19          6           0       -1.739023    2.395271    1.624087
     20          1           0       -2.625691    2.892310    1.213612
     21          1           0       -2.033902    1.503045    2.185551
     22          1           0       -1.204687    3.080850    2.282428
     23          6           0       -2.627971   -1.944273   -1.449775
     24          1           0       -2.819433   -2.197716   -2.493415
     25          1           0       -2.047081   -2.749445   -0.983465
     26          1           0       -3.580490   -1.829341   -0.917879
     27          6           0       -0.658961   -1.969058    2.372783
     28          1           0       -0.112859   -2.865233    2.050728
     29          1           0       -0.518354   -1.822424    3.444786
     30          1           0       -1.728337   -2.105781    2.166275
     31          6           0        4.114271    0.277415    0.384281
     32          1           0        4.442626   -0.577223    0.991403
     33          1           0        3.530955    0.959221    1.018590
     34          1           0        4.988819    0.811010    0.007427
 ---------------------------------------------------------------------

 SCF Done:  E(RB3LYP) =  -768.325841957     A.U. after    1 cycles

 The electronic state is 1-A.
 Alpha  occ. eigenvalues --  -19.32872 -19.21115 -19.20111 -19.19525 -19.18184
 Alpha  occ. eigenvalues --  -10.39773 -10.31365 -10.31324 -10.29621 -10.29414
 Alpha  occ. eigenvalues --  -10.27566 -10.26006 -10.25742 -10.25400 -10.24638
 Alpha  occ. eigenvalues --   -1.21751  -1.09608  -1.08178  -1.07386  -1.06409
 Alpha  occ. eigenvalues --   -0.86743  -0.85386  -0.76959  -0.74735  -0.74173
 Alpha  occ. eigenvalues --   -0.70434  -0.69436  -0.68556  -0.65583  -0.61454
 Alpha  occ. eigenvalues --   -0.60886  -0.58273  -0.56960  -0.54450  -0.53276
 Alpha  occ. eigenvalues --   -0.51760  -0.50969  -0.50453  -0.50246  -0.49844
 Alpha  occ. eigenvalues --   -0.48736  -0.47694  -0.46863  -0.46275  -0.45539
 Alpha  occ. eigenvalues --   -0.43641  -0.43263  -0.42822  -0.41392  -0.40419
 Alpha  occ. eigenvalues --   -0.39961  -0.37581  -0.36521  -0.36154  -0.34621
 Alpha  occ. eigenvalues --   -0.32198  -0.31232  -0.29424  -0.28238
 Alpha virt. eigenvalues --   -0.15318   0.00670   0.04098   0.05649   0.06110
 Alpha virt. eigenvalues --    0.07057   0.08473   0.08717   0.09078   0.10331
 Alpha virt. eigenvalues --    0.11283   0.11748   0.12285   0.12727   0.13180

 Mulliken charges:
               1
     1  C    0.061224
     2  C    0.065076
     3  C    0.311059
     4  C    0.052811
     5  C    0.112541
     6  H    0.280772
     7  H    0.211620
     8  H    0.195662
     9  H    0.250058
    10  H    0.182834
    11  O   -0.289126
    12  O   -0.485544
    13  O   -0.494850
    14  O   -0.483688
    15  C   -0.057228
    16  H    0.191243
    17  H    0.183119
    18  O   -0.468591
    19  C   -0.223357
    20  H    0.172470
    21  H    0.175371
    22  H    0.195244
    23  C   -0.223772
    24  H    0.190040
    25  H    0.165299
    26  H    0.170903
    27  C   -0.226641
    28  H    0.166245
    29  H    0.187789
    30  H    0.161094
    31  C   -0.225212
    32  H    0.159856
    33  H    0.154060
    34  H    0.181620
 Sum of Mulliken charges =   1.00000

 Dipole moment (field-independent basis, Debye):
    X=             -4.1027    Y=              0.3233    Z=             -0.3505  Tot=              4.1304
 Quadrupole moment (field-independent basis, Debye-Ang):
   XX=            -68.3705   YY=            -67.8830   ZZ=            -75.6762
   XY=             -1.0773   XZ=              4.7084   YZ=             -4.4995

  Exact polarizability: 149.118  -1.712 138.021   4.962  -1.679 138.356
 Approx polarizability: 162.364  -1.047 154.252   3.697  -2.173 161.912

                      1                      2                      3
                      A                      A                      A
 Frequencies --     39.1817                47.0794                58.1644
 Red. masses --      4.1685                 2.8742                 2.9100
 Frc consts  --      0.0038                 0.0038                 0.0058
 IR Inten    --      0.6583                 0.4900                 6.4067

                      4                      5                      6
                      A                      A                      A
 Frequencies --     78.2949                96.5675               102.5179
 Red. masses --      2.5353                 2.5088                 2.4056
 Frc consts  --      0.0092                 0.0138                 0.0149
 IR Inten    --      0.4739                 9.2962                 0.7157

                      7                      8                      9
                      A                      A                      A
 Frequencies --    108.8970               137.0279               145.4163
 Red. masses --      2.3458                 1.7246                 2.3606
 Frc consts  --      0.0164                 0.0191                 0.0294
 IR Inten    --      4.7011                 2.6726                 4.5494

                     10                     11                     12
                      A                      A                      A
 Frequencies --    153.3739               172.9985               187.1772
 Red. masses --      1.6744                 1.6810                 1.4994
 Frc consts  --      0.0232                 0.0296                 0.0310
 IR Inten    --      2.7687                 1.0098                 0.6471

                     13                     14                     15
                      A                      A                      A
 Frequencies --    205.4846               219.1912               242.4597
 Red. masses --      1.7786                 2.0850                 2.9750
 Frc consts  --      0.0442                 0.0590                 0.1030
 IR Inten    --      8.0104                15.9777                 5.2329

                     16                     17                     18
                      A                      A                      A
 Frequencies --    270.0999               279.7117               334.7030
 Red. masses --      3.3031                 4.4610                 3.6419
 Frc consts  --      0.1420                 0.2056                 0.2404
 IR Inten    --     13.3844                 7.5385                 8.2976

                     19                     20                     21
                      A                      A                      A
 Frequencies --    362.4274               392.7423               402.0476
 Red. masses --      3.2257                 3.5060                 3.6614
 Frc consts  --      0.2496                 0.3186                 0.3487
 IR Inten    --     10.8879                16.5541                 4.2030

                     22                     23                     24
                      A                      A                      A
 Frequencies --    436.1701               474.0442               486.3274
 Red. masses --      3.8242                 3.7260                 3.5534
 Frc consts  --      0.4286                 0.4933                 0.4952
 IR Inten    --      9.3116                10.6287                 5.7597

                     25                     26                     27
                      A                      A                      A
 Frequencies --    531.1673               579.2841               631.1713
 Red. masses --      4.2043                 4.8405                 3.6917
 Frc consts  --      0.6989                 0.9570                 0.8665
 IR Inten    --     42.1707                34.6433                 4.7104

                     28                     29                     30
                      A                      A                      A
 Frequencies --    706.3714               860.2054               880.0991
 Red. masses --      4.0875                 3.3282                 3.5933
 Frc consts  --      1.2017                 1.4510                 1.6399
 IR Inten    --     41.4540                 7.6937                23.5932

                     31                     32                     33
                      A                      A                      A
 Frequencies --    921.4534               938.0736               961.2627
 Red. masses --      2.9919                 3.7070                 4.6105
 Frc consts  --      1.4967                 1.9220                 2.5100
 IR Inten    --     37.0352                38.6514                21.6435

                     34                     35                     36
                      A                      A                      A
 Frequencies --    961.8683              1009.6981              1022.8413
 Red. masses --      3.0362                 2.7316                 4.0349
 Frc consts  --      1.6550                 1.6408                 2.4871
 IR Inten    --     27.7377                10.0895                34.6887

                     37                     38                     39
                      A                      A                      A
 Frequencies --   1056.8952              1071.7659              1114.1495
 Red. masses --      2.7279                 2.0843                 2.5414
 Frc consts  --      1.7953                 1.4106                 1.8587
 IR Inten    --     56.5904                 6.4273                33.5155

                     40                     41                     42
                      A                      A                      A
 Frequencies --   1127.3516              1133.5043              1136.6947
 Red. masses --      4.2663                 5.5877                 2.7179
 Frc consts  --      3.1946                 4.2299                 2.0691
 IR Inten    --     84.2748               234.5433                51.2442

                     43                     44                     45
                      A                      A                      A
 Frequencies --   1147.8659              1150.9747              1179.3923
 Red. masses --      4.0435                 3.5808                 1.2841
 Frc consts  --      3.1390                 2.7949                 1.0524
 IR Inten    --    313.4378                63.9727                 2.3761

                     46                     47                     48
                      A                      A                      A
 Frequencies --   1184.3324              1190.1312              1193.3182
 Red. masses --      1.2859                 1.2850                 1.2664
 Frc consts  --      1.0627                 1.0724                 1.0625
 IR Inten    --      1.7006                 5.5961                 3.3701

                     49                     50                     51
                      A                      A                      A
 Frequencies --   1218.2353              1223.0330              1227.6983
 Red. masses --      1.4862                 1.5394                 1.6294
 Frc consts  --      1.2996                 1.3567                 1.4470
 IR Inten    --     10.3280                43.7310                60.7345

                     52                     53                     54
                      A                      A                      A
 Frequencies --   1232.6400              1257.8150              1289.7460
 Red. masses --      1.6672                 1.5624                 1.3596
 Frc consts  --      1.4925                 1.4564                 1.3325
 IR Inten    --     40.0582                20.9072                16.7864

                     55                     56                     57
                      A                      A                      A
 Frequencies --   1324.0724              1337.4782              1349.5266
 Red. masses --      1.2654                 1.1688                 1.1736
 Frc consts  --      1.3071                 1.2319                 1.2593
 IR Inten    --      9.4134                 7.3372                32.0379

                     58                     59                     60
                      A                      A                      A
 Frequencies --   1355.2391              1377.0507              1397.5544
 Red. masses --      1.1629                 1.2877                 1.4531
 Frc consts  --      1.2585                 1.4387                 1.6722
 IR Inten    --     12.4165                15.1035                 7.9572

                     61                     62                     63
                      A                      A                      A
 Frequencies --   1407.7693              1426.9703              1435.4091
 Red. masses --      1.3436                 1.4508                 1.4063
 Frc consts  --      1.5689                 1.7405                 1.7072
 IR Inten    --     34.4221                17.2130                37.4283

                     64                     65                     66
                      A                      A                      A
 Frequencies --   1492.6177              1493.6414              1497.1795
 Red. masses --      1.0912                 1.1286                 1.1306
 Frc consts  --      1.4324                 1.4835                 1.4931
 IR Inten    --      1.3406                 1.7900                 0.7849

                     67                     68                     69
                      A                      A                      A
 Frequencies --   1500.4961              1508.3337              1509.9461
 Red. masses --      1.1246                 1.1001                 1.0494
 Frc consts  --      1.4918                 1.4746                 1.4097
 IR Inten    --      0.5785                11.8947                 8.4667

                     70                     71                     72
                      A                      A                      A
 Frequencies --   1512.0121              1514.2254              1515.5268
 Red. masses --      1.0676                 1.0503                 1.0579
 Frc consts  --      1.4380                 1.4189                 1.4316
 IR Inten    --     10.0360                 9.8338                 5.6576

                     73                     74                     75
                      A                      A                      A
 Frequencies --   1524.7626              1526.2396              1530.9621
 Red. masses --      1.0512                 1.0588                 1.0715
 Frc consts  --      1.4399                 1.4531                 1.4797
 IR Inten    --     27.5229                 2.4283                14.1046

                     76                     77                     78
                      A                      A                      A
 Frequencies --   1531.5936              1660.4784              3020.3795
 Red. masses --      1.0766                 7.1956                 1.0399
 Frc consts  --      1.4880                11.6892                 5.5893
 IR Inten    --     12.1790               156.9655                49.5669

                     79                     80                     81
                      A                      A                      A
 Frequencies --   3028.1366              3031.1800              3032.8514
 Red. masses --      1.0618                 1.0611                 1.0466
 Frc consts  --      5.7364                 5.7443                 5.6722
 IR Inten    --     36.0173                15.7528                28.0421

                     82                     83                     84
                      A                      A                      A
 Frequencies --   3041.5623              3053.2963              3073.6792
 Red. masses --      1.0418                 1.0330                 1.0854
 Frc consts  --      5.6783                 5.6740                 6.0415
 IR Inten    --     69.2302                39.1903                25.8073

                     85                     86                     87
                      A                      A                      A
 Frequencies --   3077.2427              3092.7565              3096.7671
 Red. masses --      1.1059                 1.1069                 1.0872
 Frc consts  --      6.1703                 6.2378                 6.1427
 IR Inten    --     69.0824                53.0477                26.0638

                     88                     89                     90
                      A                      A                      A
 Frequencies --   3103.5371              3104.6376              3126.3077
 Red. masses --      1.1068                 1.1001                 1.1070
 Frc consts  --      6.2812                 6.2473                 6.3748
 IR Inten    --     41.3431                15.6807                35.4492

                     91                     92                     93
                      A                      A                      A
 Frequencies --   3159.1437              3167.9828              3170.9959
 Red. masses --      1.0995                 1.1006                 1.1016
 Frc consts  --      6.4651                 6.5082                 6.5261
 IR Inten    --     28.7730                23.3769                18.9379

                     94                     95                     96
                      A                      A                      A
 Frequencies --   3179.9703              3182.3695              3211.1288
 Red. masses --      1.1035                 1.0864                 1.0957
 Frc consts  --      6.5747                 6.4825                 6.6567
 IR Inten    --     14.3478                 0.5121                 1.4308

 - Thermochemistry -
 -------------------
 Temperature   298.150 Kelvin.  Pressure   1.00000 Atm.
 Atom     1 has atomic number  6 and mass  12.00000

 Molecular mass:   219.12325 amu.
 Principal axes and moments of inertia in atomic units:
                           1         2         3
     Eigenvalues --  2608.264714210.568124369.91253
           X            0.99991   0.00872   0.01038
           Y           -0.00936   0.99796   0.06316
           Z           -0.00981  -0.06326   0.99795
 This molecule is an asymmetric top.
 Rotational symmetry number  1.
 Warning -- assumption of classical behavior for rotation
           may cause significant error
 Rotational temperatures (Kelvin)      0.03321     0.02057     0.01982
 Rotational constants (GHZ):           0.69193     0.42862     0.41299
 Zero-point vibrational energy     773111.5 (Joules/Mol)
                                  184.77809 (Kcal/Mol)
 Warning -- explicit consideration of  26 degrees of freedom as
           vibrations may cause significant error
 Vibrational temperatures:     56.37    67.74    83.69   112.65   138.94
          (Kelvin)            147.50   156.68   197.15   209.22   220.67
                              248.91   269.31   295.65   315.37   348.85
                              388.61   402.44   481.56   521.45   565.07
                              578.46   627.55   682.04   699.72   764.23
                              833.46   908.11  1016.31  1237.64  1266.27
                             1325.77  1349.68  1383.04  1383.91  1452.73
                             1471.64  1520.64  1542.03  1603.01  1622.01
                             1630.86  1635.45  1651.52  1656.00  1696.88
                             1703.99  1712.33  1716.92  1752.77  1759.67
                             1766.38  1773.49  1809.72  1855.66  1905.04
                             1924.33  1941.67  1949.89  1981.27  2010.77
                             2025.47  2053.09  2065.23  2147.54  2149.02
                             2154.11  2158.88  2170.16  2172.48  2175.45
                             2178.63  2180.51  2193.79  2195.92  2202.71
                             2203.62  2389.06  4345.65  4356.81  4361.19
                             4363.60  4376.13  4393.01  4422.34  4427.47
                             4449.79  4455.56  4465.30  4466.88  4498.06
                             4545.30  4558.02  4562.36  4575.27  4578.72
                             4620.10

 Zero-point correction=                           0.294463 (Hartree/Particle)
 Thermal correction to Energy=                    0.311989
 Thermal correction to Enthalpy=                  0.312933
 Thermal correction to Gibbs Free Energy=         0.248556
 Sum of electronic and zero-point Energies=           -768.031379
 Sum of electronic and thermal Energies=              -768.013853
 Sum of electronic and thermal Enthalpies=            -768.012909
 Sum of electronic and thermal Free Energies=         -768.077286

                     E (Thermal)             CV                S
                      KCal/Mol        Cal/Mol-Kelvin    Cal/Mol-Kelvin
 Total                  195.776             61.786            135.492
 Electronic               0.000              0.000              0.000
 Translational            0.889              2.981             42.056
 Rotational               0.889              2.981             32.240
 Vibrational            193.998             55.824             61.196
 Vibration     1          0.594              1.981              5.300
 Vibration     2          0.595              1.979              4.936
 Vibration     3          0.596              1.974              4.519
 Vibration     4          0.600              1.964              3.933
 Vibration     5          0.603              1.952              3.522
 Vibration     6          0.605              1.947              3.406
 Vibration     7          0.606              1.942              3.288
 Vibration     8          0.614              1.916              2.845
 Vibration     9          0.617              1.908              2.731
 Vibration    10          0.619              1.899              2.630
 Vibration    11          0.627              1.876              2.403
 Vibration    12          0.632              1.857              2.256
 Vibration    13          0.640              1.832              2.083
 Vibration    14          0.647              1.812              1.966
 Vibration    15          0.659              1.775              1.785
 Vibration    16          0.674              1.728              1.596
 Vibration    17          0.680              1.711              1.535
 Vibration    18          0.716              1.606              1.237
 Vibration    19          0.736              1.550              1.112
 Vibration    20          0.760              1.486              0.990
 Vibration    21          0.768              1.466              0.955
 Vibration    22          0.797              1.391              0.839
 Vibration    23          0.831              1.308              0.726
 Vibration    24          0.842              1.280              0.693
 Vibration    25          0.886              1.181              0.585
 Vibration    26          0.936              1.076              0.487

                           ! Non-Optimized Parameters !
 Normal termination of Gaussian 16 at Fri May 24 08:53:39 2019.
