 Gaussian 16, Revision A.03,
 Gaussian 16:  ES64L-G16RevA.03 25-Dec-2016

 -------------------------------------------------------------------
 #p b3lyp 6-31g* opt freq=noraman scrf=(pcm,solvent=tetrahydrofuran)
 -------------------------------------------------------------------

 -----
 title
 -----
 Symbolic Z-matrix:
 Charge =  1 Multiplicity = 1

 SCF Done:  E(RB3LYP) =  -768.322359538     A.U. after   14 cycles
 Optimization completed.
    -- Stationary point found.
 Normal termination of Gaussian 16 at Fri May 24 08:37:34 2019.

 --------------------------------------------------------------------
 #P Geom=AllCheck Guess=TCheck SCRF=Check GenChk RB3LYP/6-31G(d) Freq
 --------------------------------------------------------------------

 Structure from the checkpoint file:  "/scratch/Gau-14757.chk"
 -----
 title
 -----
 Charge =  1 Multiplicity = 1

                         Standard orientation:
 ---------------------------------------------------------------------
 Center     Atomic      Atomic             Coordinates (Angstroms)
 Number     Number       Type             X           Y           Z
 ---------------------------------------------------------------------
      1          6           0       -0.838150    0.572730    0.670867
      2          6           0       -1.529600   -0.498293   -0.262756
      3          6           0       -1.195029   -0.255195   -1.685390
      4          6           0        1.057053    0.309724   -1.112449
      5          6           0        0.498932    1.108855    0.066087
      6          1           0       -1.958420   -0.313124   -2.462380
      7          1           0       -1.097630   -1.482191   -0.006527
      8          1           0       -1.534735    1.413693    0.672318
      9          1           0        1.729598    0.952511   -1.676807
     10          1           0        1.275393    1.112207    0.841612
     11          8           0       -0.047996    0.070742   -2.098928
     12          8           0       -2.911391   -0.461412   -0.071810
     13          8           0       -0.786661    0.147897    2.001648
     14          8           0        0.287564    2.411161   -0.453829
     15          6           0        1.745914   -1.028943   -0.826330
     16          1           0        1.060415   -1.768721   -0.386692
     17          1           0        2.113568   -1.442208   -1.776216
     18          8           0        2.797941   -0.721093    0.054630
     19          6           0       -3.566621   -1.736978   -0.106197
     20          1           0       -3.154297   -2.406572    0.658764
     21          1           0       -4.617644   -1.540530    0.106516
     22          1           0       -3.477845   -2.210013   -1.092386
     23          6           0        0.057359   -0.954935    2.329265
     24          1           0       -0.331972   -1.899199    1.922687
     25          1           0        0.046642   -1.023115    3.418044
     26          1           0        1.088688   -0.807258    1.987944
     27          6           0        0.302459    3.444058    0.532587
     28          1           0        1.265375    3.465827    1.059293
     29          1           0        0.157867    4.382076   -0.005742
     30          1           0       -0.504918    3.324177    1.266594
     31          6           0        3.701099   -1.810292    0.245523
     32          1           0        3.187367   -2.679556    0.677151
     33          1           0        4.466954   -1.459114    0.938596
     34          1           0        4.169440   -2.101644   -0.703711
 ---------------------------------------------------------------------

 SCF Done:  E(RB3LYP) =  -768.322359538     A.U. after    1 cycles

 The electronic state is 1-A.
 Alpha  occ. eigenvalues --  -19.32927 -19.20960 -19.19964 -19.19589 -19.19157
 Alpha  occ. eigenvalues --  -10.39535 -10.32281 -10.32123 -10.30272 -10.29615
 Alpha  occ. eigenvalues --  -10.28917 -10.26200 -10.25816 -10.25251 -10.25114
 Alpha  occ. eigenvalues --   -1.21750  -1.09999  -1.08276  -1.07733  -1.07072
 Alpha  occ. eigenvalues --   -0.87182  -0.85646  -0.77832  -0.75396  -0.74806
 Alpha  occ. eigenvalues --   -0.71470  -0.69065  -0.68173  -0.66974  -0.62104
 Alpha  occ. eigenvalues --   -0.60132  -0.59102  -0.56612  -0.54572  -0.53828
 Alpha  occ. eigenvalues --   -0.52839  -0.52683  -0.51496  -0.50762  -0.49016
 Alpha  occ. eigenvalues --   -0.48328  -0.48242  -0.47514  -0.46497  -0.45693
 Alpha  occ. eigenvalues --   -0.44714  -0.43223  -0.42174  -0.41831  -0.40765
 Alpha  occ. eigenvalues --   -0.39909  -0.37675  -0.36619  -0.36126  -0.35053
 Alpha  occ. eigenvalues --   -0.32151  -0.31670  -0.29892  -0.28542
 Alpha virt. eigenvalues --   -0.15435   0.00383   0.03425   0.03913   0.05445
 Alpha virt. eigenvalues --    0.07258   0.07695   0.08511   0.09012   0.09959
 Alpha virt. eigenvalues --    0.10060   0.11219   0.12259   0.12600   0.13268

 Mulliken charges:
               1
     1  C    0.133608
     2  C    0.011109
     3  C    0.286114
     4  C    0.049444
     5  C    0.067559
     6  H    0.281462
     7  H    0.224847
     8  H    0.218936
     9  H    0.244132
    10  H    0.210061
    11  O   -0.310164
    12  O   -0.469603
    13  O   -0.463031
    14  O   -0.492921
    15  C   -0.036150
    16  H    0.156345
    17  H    0.189388
    18  O   -0.474253
    19  C   -0.234427
    20  H    0.177554
    21  H    0.198885
    22  H    0.168172
    23  C   -0.259874
    24  H    0.161832
    25  H    0.197909
    26  H    0.176958
    27  C   -0.226972
    28  H    0.166456
    29  H    0.186410
    30  H    0.163902
    31  C   -0.214623
    32  H    0.160380
    33  H    0.185822
    34  H    0.164734
 Sum of Mulliken charges =   1.00000

 Dipole moment (field-independent basis, Debye):
    X=             -0.4255    Y=             -4.3108    Z=             -3.2727  Tot=              5.4291
 Quadrupole moment (field-independent basis, Debye-Ang):
   XX=            -66.5990   YY=            -69.2833   ZZ=            -77.5143
   XY=              2.3201   XZ=              6.7018   YZ=              2.8860

  Exact polarizability: 156.565   4.570 136.364   3.204  -1.125 144.985
 Approx polarizability: 170.752   4.058 152.756   0.285  -0.335 178.348

                      1                      2                      3
                      A                      A                      A
 Frequencies --     38.4864                58.9630                75.1389
 Red. masses --      4.1654                 3.4308                 3.2773
 Frc consts  --      0.0036                 0.0070                 0.0109
 IR Inten    --      2.6521                 0.7248                 2.2484

                      4                      5                      6
                      A                      A                      A
 Frequencies --     79.8572                90.2466               105.1734
 Red. masses --      2.7377                 2.3819                 2.5549
 Frc consts  --      0.0103                 0.0114                 0.0167
 IR Inten    --      8.1599                 5.5717                 9.9558

                      7                      8                      9
                      A                      A                      A
 Frequencies --    133.4942               140.6876               177.2401
 Red. masses --      2.0205                 2.6393                 1.4725
 Frc consts  --      0.0212                 0.0308                 0.0273
 IR Inten    --      0.8518                 2.7710                 0.7980

                     10                     11                     12
                      A                      A                      A
 Frequencies --    185.7476               196.5861               204.5205
 Red. masses --      1.5370                 1.9028                 1.6887
 Frc consts  --      0.0312                 0.0433                 0.0416
 IR Inten    --      0.7567                 4.8035                 0.9903

                     13                     14                     15
                      A                      A                      A
 Frequencies --    219.5938               233.4777               256.8140
 Red. masses --      1.7503                 1.4224                 3.3449
 Frc consts  --      0.0497                 0.0457                 0.1300
 IR Inten    --      0.6505                 9.6735                 4.4290

                     16                     17                     18
                      A                      A                      A
 Frequencies --    271.4326               287.4872               310.8044
 Red. masses --      2.9869                 4.4983                 3.6566
 Frc consts  --      0.1297                 0.2190                 0.2081
 IR Inten    --      4.0588                 9.3179                 5.5684

                     19                     20                     21
                      A                      A                      A
 Frequencies --    340.5980               395.3333               426.0591
 Red. masses --      4.0883                 5.1315                 4.3497
 Frc consts  --      0.2794                 0.4725                 0.4652
 IR Inten    --      1.5112                 9.8640                 5.0567

                     22                     23                     24
                      A                      A                      A
 Frequencies --    449.3136               472.8971               496.7387
 Red. masses --      3.9872                 4.6873                 3.6707
 Frc consts  --      0.4743                 0.6176                 0.5336
 IR Inten    --     24.6540                28.2888                15.9548

                     25                     26                     27
                      A                      A                      A
 Frequencies --    560.1260               586.7937               614.9306
 Red. masses --      3.0358                 4.3543                 3.8067
 Frc consts  --      0.5612                 0.8834                 0.8481
 IR Inten    --     13.7991                15.4172                10.9435

                     28                     29                     30
                      A                      A                      A
 Frequencies --    754.5317               773.4427               811.7682
 Red. masses --      4.1719                 3.2841                 2.8529
 Frc consts  --      1.3994                 1.1575                 1.1076
 IR Inten    --     68.4002                27.1877                24.1237

                     31                     32                     33
                      A                      A                      A
 Frequencies --    926.2217               948.6689               970.1281
 Red. masses --      3.0856                 3.6650                 3.0903
 Frc consts  --      1.5596                 1.9434                 1.7136
 IR Inten    --     28.8292                97.2457                47.7469

                     34                     35                     36
                      A                      A                      A
 Frequencies --    980.8280              1008.4088              1034.6468
 Red. masses --      4.8871                 4.2569                 3.1061
 Frc consts  --      2.7701                 2.5505                 1.9591
 IR Inten    --      9.6124                21.1682                19.2184

                     37                     38                     39
                      A                      A                      A
 Frequencies --   1054.3919              1068.1511              1116.9689
 Red. masses --      2.8898                 3.0833                 2.0013
 Frc consts  --      1.8929                 2.0727                 1.4711
 IR Inten    --     85.6729               109.7742                13.2209

                     40                     41                     42
                      A                      A                      A
 Frequencies --   1119.3933              1134.8611              1152.1227
 Red. masses --      3.0157                 4.0476                 2.6790
 Frc consts  --      2.2264                 3.0714                 2.0952
 IR Inten    --    110.5869               210.2708               189.9202

                     43                     44                     45
                      A                      A                      A
 Frequencies --   1158.4846              1168.4139              1182.2657
 Red. masses --      3.2302                 3.8076                 1.3639
 Frc consts  --      2.5542                 3.0626                 1.1232
 IR Inten    --    141.3228                46.7998                19.2866

                     46                     47                     48
                      A                      A                      A
 Frequencies --   1186.3517              1189.8229              1192.2998
 Red. masses --      1.2787                 1.2672                 1.2985
 Frc consts  --      1.0603                 1.0570                 1.0876
 IR Inten    --     17.3802                 9.1842                 2.8267

                     49                     50                     51
                      A                      A                      A
 Frequencies --   1213.5346              1223.9247              1232.0845
 Red. masses --      1.6476                 1.4899                 1.5891
 Frc consts  --      1.4296                 1.3149                 1.4213
 IR Inten    --    135.9226                14.6494                 5.9047

                     52                     53                     54
                      A                      A                      A
 Frequencies --   1233.9659              1236.9565              1258.3460
 Red. masses --      1.6723                 1.5404                 1.2235
 Frc consts  --      1.5003                 1.3886                 1.1415
 IR Inten    --     74.1647                27.0495                14.4346

                     55                     56                     57
                      A                      A                      A
 Frequencies --   1286.2675              1325.6349              1335.7110
 Red. masses --      1.4359                 1.1946                 1.3305
 Frc consts  --      1.3997                 1.2368                 1.3986
 IR Inten    --     13.0686                15.2863                37.4741

                     58                     59                     60
                      A                      A                      A
 Frequencies --   1346.2464              1357.0941              1399.8564
 Red. masses --      1.2995                 1.2298                 1.3802
 Frc consts  --      1.3876                 1.3345                 1.5936
 IR Inten    --     15.2803                24.9936                31.8368

                     61                     62                     63
                      A                      A                      A
 Frequencies --   1402.8097              1424.3079              1437.8554
 Red. masses --      1.3215                 1.3636                 1.3270
 Frc consts  --      1.5322                 1.6299                 1.6164
 IR Inten    --     37.8718                15.4495                24.7845

                     64                     65                     66
                      A                      A                      A
 Frequencies --   1498.7919              1499.8178              1500.7024
 Red. masses --      1.1415                 1.1271                 1.1235
 Frc consts  --      1.5108                 1.4938                 1.4908
 IR Inten    --      0.7175                 3.3199                 1.3239

                     67                     68                     69
                      A                      A                      A
 Frequencies --   1504.7718              1509.5019              1510.9026
 Red. masses --      1.1153                 1.0493                 1.0768
 Frc consts  --      1.4879                 1.4088                 1.4484
 IR Inten    --      5.4055                 9.4060                 8.5979

                     70                     71                     72
                      A                      A                      A
 Frequencies --   1514.3175              1520.4792              1526.7802
 Red. masses --      1.0549                 1.0475                 1.0556
 Frc consts  --      1.4253                 1.4268                 1.4498
 IR Inten    --      9.5557                 8.0783                13.6515

                     73                     74                     75
                      A                      A                      A
 Frequencies --   1526.9327              1530.6347              1533.6208
 Red. masses --      1.0702                 1.0665                 1.0701
 Frc consts  --      1.4702                 1.4722                 1.4829
 IR Inten    --     17.1686                18.6244                11.7828

                     76                     77                     78
                      A                      A                      A
 Frequencies --   1547.5464              1622.1873              2982.4750
 Red. masses --      1.0854                 5.4537                 1.0765
 Frc consts  --      1.5315                 8.4556                 5.6421
 IR Inten    --      6.4114               216.0485                33.1362

                     79                     80                     81
                      A                      A                      A
 Frequencies --   3017.2473              3027.5263              3031.1004
 Red. masses --      1.0560                 1.0392                 1.0349
 Frc consts  --      5.6641                 5.6120                 5.6019
 IR Inten    --     35.1908                11.4496                96.4907

                     82                     83                     84
                      A                      A                      A
 Frequencies --   3031.6884              3039.4516              3058.1795
 Red. masses --      1.0368                 1.0342                 1.1034
 Frc consts  --      5.6147                 5.6293                 6.0801
 IR Inten    --     34.7318                57.1649                54.7005

                     85                     86                     87
                      A                      A                      A
 Frequencies --   3069.5731              3090.5256              3091.5518
 Red. masses --      1.0846                 1.1073                 1.1066
 Frc consts  --      6.0209                 6.2311                 6.2316
 IR Inten    --      8.5911                46.3182                53.7153

                     88                     89                     90
                      A                      A                      A
 Frequencies --   3099.0617              3104.7452              3127.9971
 Red. masses --      1.0993                 1.1069                 1.0861
 Frc consts  --      6.2205                 6.2862                 6.2613
 IR Inten    --     52.1198                33.1329                 4.3396

                     91                     92                     93
                      A                      A                      A
 Frequencies --   3166.3864              3168.0869              3168.6896
 Red. masses --      1.1008                 1.1006                 1.1009
 Frc consts  --      6.5023                 6.5082                 6.5124
 IR Inten    --     23.4313                12.8811                23.4854

                     94                     95                     96
                      A                      A                      A
 Frequencies --   3181.3920              3182.2439              3203.6966
 Red. masses --      1.1011                 1.0884                 1.0944
 Frc consts  --      6.5663                 6.4940                 6.6180
 IR Inten    --     18.4289                 0.4980                 2.9554

 - Thermochemistry -
 -------------------
 Temperature   298.150 Kelvin.  Pressure   1.00000 Atm.
 Atom     1 has atomic number  6 and mass  12.00000

 Molecular mass:   219.12325 amu.
 Principal axes and moments of inertia in atomic units:
                           1         2         3
     Eigenvalues --  2737.178423996.207534521.33997
           X            0.99995  -0.00085   0.00978
           Y            0.00071   0.99989   0.01493
           Z           -0.00979  -0.01492   0.99984
 This molecule is an asymmetric top.
 Rotational symmetry number  1.
 Warning -- assumption of classical behavior for rotation
           may cause significant error
 Rotational temperatures (Kelvin)      0.03164     0.02167     0.01916
 Rotational constants (GHZ):           0.65934     0.45161     0.39916
 Zero-point vibrational energy     773050.3 (Joules/Mol)
                                  184.76345 (Kcal/Mol)
 Warning -- explicit consideration of  27 degrees of freedom as
           vibrations may cause significant error
 Vibrational temperatures:     55.37    84.83   108.11   114.90   129.84
          (Kelvin)            151.32   192.07   202.42   255.01   267.25
                              282.84   294.26   315.95   335.92   369.50
                              390.53   413.63   447.18   490.04   568.80
                              613.00   646.46   680.39   714.70   805.90
                              844.27   884.75  1085.60  1112.81  1167.95
                             1332.63  1364.92  1395.80  1411.19  1450.88
                             1488.63  1517.03  1536.83  1607.07  1610.56
                             1632.81  1657.65  1666.80  1681.09  1701.02
                             1706.90  1711.89  1715.45  1746.01  1760.95
                             1772.69  1775.40  1779.70  1810.48  1850.65
                             1907.29  1921.79  1936.95  1952.56  2014.08
                             2018.33  2049.26  2068.75  2156.43  2157.90
                             2159.18  2165.03  2171.84  2173.85  2178.77
                             2187.63  2196.70  2196.92  2202.24  2206.54
                             2226.57  2333.97  4291.12  4341.15  4355.94
                             4361.08  4361.92  4373.09  4400.04  4416.43
                             4446.58  4448.05  4458.86  4467.04  4500.49
                             4555.72  4558.17  4559.04  4577.31  4578.54
                             4609.40

 Zero-point correction=                           0.294439 (Hartree/Particle)
 Thermal correction to Energy=                    0.311623
 Thermal correction to Enthalpy=                  0.312567
 Thermal correction to Gibbs Free Energy=         0.249499
 Sum of electronic and zero-point Energies=           -768.027920
 Sum of electronic and thermal Energies=              -768.010737
 Sum of electronic and thermal Enthalpies=            -768.009792
 Sum of electronic and thermal Free Energies=         -768.072861

                     E (Thermal)             CV                S
                      KCal/Mol        Cal/Mol-Kelvin    Cal/Mol-Kelvin
 Total                  195.546             61.596            132.739
 Electronic               0.000              0.000              0.000
 Translational            0.889              2.981             42.056
 Rotational               0.889              2.981             32.270
 Vibrational            193.769             55.634             58.413
 Vibration     1          0.594              1.982              5.336
 Vibration     2          0.596              1.974              4.492
 Vibration     3          0.599              1.966              4.014
 Vibration     4          0.600              1.963              3.894
 Vibration     5          0.602              1.956              3.655
 Vibration     6          0.605              1.945              3.356
 Vibration     7          0.613              1.920              2.895
 Vibration     8          0.615              1.913              2.795
 Vibration     9          0.628              1.870              2.357
 Vibration    10          0.632              1.859              2.270
 Vibration    11          0.636              1.845              2.165
 Vibration    12          0.640              1.833              2.092
 Vibration    13          0.647              1.811              1.962
 Vibration    14          0.654              1.790              1.852
 Vibration    15          0.666              1.751              1.683
 Vibration    16          0.675              1.726              1.587
 Vibration    17          0.685              1.697              1.489
 Vibration    18          0.700              1.653              1.358
 Vibration    19          0.720              1.594              1.209
 Vibration    20          0.762              1.480              0.980
 Vibration    21          0.788              1.414              0.872
 Vibration    22          0.808              1.362              0.798
 Vibration    23          0.830              1.310              0.729
 Vibration    24          0.852              1.257              0.666
 Vibration    25          0.916              1.118              0.524
 Vibration    26          0.944              1.060              0.473
 Vibration    27          0.974              1.000              0.425

 Optimization completed.
    -- Stationary point found.
 Normal termination of Gaussian 16 at Fri May 24 09:31:31 2019.
