 Gaussian 16, Revision A.03,
 Gaussian 16:  ES64L-G16RevA.03 25-Dec-2016

 -------------------------------------------------------------------
 #p b3lyp 6-31g* opt freq=noraman scrf=(pcm,solvent=tetrahydrofuran)
 -------------------------------------------------------------------

 -----
 title
 -----
 Symbolic Z-matrix:
 Charge =  1 Multiplicity = 1

 SCF Done:  E(RB3LYP) =  -768.329136236     A.U. after   14 cycles
 Optimization completed.
    -- Stationary point found.
 Normal termination of Gaussian 16 at Fri May 24 08:33:04 2019.

 --------------------------------------------------------------------
 #P Geom=AllCheck Guess=TCheck SCRF=Check GenChk RB3LYP/6-31G(d) Freq
 --------------------------------------------------------------------

 Structure from the checkpoint file:  "/scratch/Gau-143348.chk"
 -----
 title
 -----
 Charge =  1 Multiplicity = 1

                         Standard orientation:
 ---------------------------------------------------------------------
 Center     Atomic      Atomic             Coordinates (Angstroms)
 Number     Number       Type             X           Y           Z
 ---------------------------------------------------------------------
      1          6           0       -1.066620    0.401226   -0.160246
      2          6           0       -0.850735   -1.139501    0.021722
      3          6           0       -0.098184   -1.625587   -1.159067
      4          6           0        1.353857    0.313100   -1.122641
      5          6           0        0.304138    1.110439   -0.309212
      6          1           0       -0.341661   -2.572622   -1.644621
      7          1           0       -0.159939   -1.284009    0.869989
      8          1           0       -1.613695    0.577691   -1.091805
      9          1           0        1.609036    0.872811   -2.020772
     10          1           0        0.721197    1.271616    0.693501
     11          8           0        0.836477   -0.983212   -1.701950
     12          8           0       -1.978468   -1.916301    0.289211
     13          8           0       -1.883693    0.944603    0.842799
     14          8           0        0.176337    2.340576   -0.992314
     15          6           0        2.599524   -0.077008   -0.349499
     16          1           0        3.100323    0.854139   -0.041694
     17          1           0        3.288837   -0.636570   -0.997934
     18          8           0        2.188095   -0.849456    0.756542
     19          6           0       -3.132271   -1.686378   -0.536580
     20          1           0       -2.898836   -1.790935   -1.604563
     21          1           0       -3.848699   -2.458477   -0.254911
     22          1           0       -3.561514   -0.699088   -0.344516
     23          6           0       -1.536459    0.682654    2.206755
     24          1           0       -2.250579    1.252287    2.802876
     25          1           0       -0.522451    1.017500    2.453124
     26          1           0       -1.642647   -0.382178    2.443319
     27          6           0       -0.226102    3.449354   -0.182277
     28          1           0        0.441644    3.561528    0.682750
     29          1           0       -0.142328    4.332098   -0.818860
     30          1           0       -1.257271    3.342805    0.167341
     31          6           0        3.275419   -1.305237    1.561493
     32          1           0        2.840262   -1.889337    2.373695
     33          1           0        3.956419   -1.938515    0.978096
     34          1           0        3.836517   -0.458802    1.978000
 ---------------------------------------------------------------------

 SCF Done:  E(RB3LYP) =  -768.329136236     A.U. after    1 cycles

 The electronic state is 1-A.
 Alpha  occ. eigenvalues --  -19.32688 -19.20591 -19.19897 -19.19744 -19.18882
 Alpha  occ. eigenvalues --  -10.39342 -10.32171 -10.31480 -10.29864 -10.29627
 Alpha  occ. eigenvalues --  -10.28468 -10.25803 -10.25419 -10.25362 -10.24682
 Alpha  occ. eigenvalues --   -1.21467  -1.09642  -1.07989  -1.07676  -1.06467
 Alpha  occ. eigenvalues --   -0.87207  -0.85582  -0.77825  -0.74945  -0.74645
 Alpha  occ. eigenvalues --   -0.71288  -0.69643  -0.67809  -0.65766  -0.61917
 Alpha  occ. eigenvalues --   -0.59793  -0.58831  -0.56444  -0.54143  -0.54034
 Alpha  occ. eigenvalues --   -0.52624  -0.52086  -0.51260  -0.50413  -0.48863
 Alpha  occ. eigenvalues --   -0.48293  -0.47722  -0.46945  -0.45764  -0.45367
 Alpha  occ. eigenvalues --   -0.43821  -0.43627  -0.43146  -0.41665  -0.40654
 Alpha  occ. eigenvalues --   -0.40016  -0.37041  -0.36590  -0.35667  -0.34839
 Alpha  occ. eigenvalues --   -0.32747  -0.31259  -0.30146  -0.27623
 Alpha virt. eigenvalues --   -0.14891   0.00198   0.04288   0.05279   0.06044
 Alpha virt. eigenvalues --    0.07225   0.07942   0.08898   0.09252   0.10222
 Alpha virt. eigenvalues --    0.10847   0.12216   0.12320   0.13058   0.13486

 Mulliken charges:
               1
     1  C    0.102393
     2  C    0.009334
     3  C    0.285529
     4  C    0.038378
     5  C    0.110322
     6  H    0.279141
     7  H    0.260564
     8  H    0.195132
     9  H    0.250275
    10  H    0.186557
    11  O   -0.304288
    12  O   -0.472477
    13  O   -0.469617
    14  O   -0.495062
    15  C   -0.038861
    16  H    0.191391
    17  H    0.186135
    18  O   -0.490478
    19  C   -0.243191
    20  H    0.161373
    21  H    0.195975
    22  H    0.186519
    23  C   -0.245948
    24  H    0.192660
    25  H    0.167250
    26  H    0.176192
    27  C   -0.223904
    28  H    0.156715
    29  H    0.179658
    30  H    0.173032
    31  C   -0.214096
    32  H    0.183512
    33  H    0.164664
    34  H    0.165223
 Sum of Mulliken charges =   1.00000

 Dipole moment (field-independent basis, Debye):
    X=              2.7572    Y=             -2.4629    Z=             -1.5009  Tot=              3.9901
 Quadrupole moment (field-independent basis, Debye-Ang):
   XX=            -64.8399   YY=            -73.1922   ZZ=            -75.8246
   XY=              1.5019   XZ=              3.5910   YZ=              7.8949

  Exact polarizability: 151.302   4.884 148.487  -7.574   5.693 134.286
 Approx polarizability: 166.379   3.676 167.085 -12.423   4.274 162.476

                      1                      2                      3
                      A                      A                      A
 Frequencies --     37.0889                63.9884                76.2768
 Red. masses --      3.9624                 3.3638                 3.5221
 Frc consts  --      0.0032                 0.0081                 0.0121
 IR Inten    --      0.2604                 0.2971                 0.8900

                      4                      5                      6
                      A                      A                      A
 Frequencies --     89.3403               101.9859               116.9889
 Red. masses --      2.4152                 2.4074                 2.1256
 Frc consts  --      0.0114                 0.0148                 0.0171
 IR Inten    --      7.7468                 0.3855                 5.8505

                      7                      8                      9
                      A                      A                      A
 Frequencies --    127.1483               141.6321               166.3028
 Red. masses --      2.1494                 3.3962                 1.7036
 Frc consts  --      0.0205                 0.0401                 0.0278
 IR Inten    --     10.6052                 7.6695                 1.1351

                     10                     11                     12
                      A                      A                      A
 Frequencies --    181.6524               184.7123               209.7374
 Red. masses --      1.3670                 1.3656                 1.4925
 Frc consts  --      0.0266                 0.0275                 0.0387
 IR Inten    --      2.8722                 0.5302                13.8711

                     13                     14                     15
                      A                      A                      A
 Frequencies --    226.0952               235.4556               264.5086
 Red. masses --      1.9245                 2.7307                 3.3110
 Frc consts  --      0.0580                 0.0892                 0.1365
 IR Inten    --      6.1417                 1.8389                 6.9956

                     16                     17                     18
                      A                      A                      A
 Frequencies --    287.9307               293.3435               329.9770
 Red. masses --      2.9227                 3.4853                 3.6918
 Frc consts  --      0.1428                 0.1767                 0.2368
 IR Inten    --      3.1720                 3.0963                 2.6148

                     19                     20                     21
                      A                      A                      A
 Frequencies --    346.8380               361.2581               393.9474
 Red. masses --      3.6598                 5.0538                 4.4311
 Frc consts  --      0.2594                 0.3886                 0.4052
 IR Inten    --      6.9625                 7.4173                 5.1494

                     22                     23                     24
                      A                      A                      A
 Frequencies --    420.4346               483.3114               534.9708
 Red. masses --      4.0533                 3.6799                 3.9050
 Frc consts  --      0.4221                 0.5065                 0.6585
 IR Inten    --     15.0559                21.2636                 5.5494

                     25                     26                     27
                      A                      A                      A
 Frequencies --    561.6109               593.9031               666.5443
 Red. masses --      4.1736                 3.0628                 4.7948
 Frc consts  --      0.7756                 0.6365                 1.2551
 IR Inten    --     23.6053                23.0178                18.1008

                     28                     29                     30
                      A                      A                      A
 Frequencies --    726.1073               767.8858               835.5941
 Red. masses --      4.5045                 4.2099                 2.6803
 Frc consts  --      1.3992                 1.4626                 1.1026
 IR Inten    --     91.7933                38.8453                25.7484

                     31                     32                     33
                      A                      A                      A
 Frequencies --    916.6933               937.9759               952.4556
 Red. masses --      3.0152                 3.6149                 3.8222
 Frc consts  --      1.4928                 1.8738                 2.0429
 IR Inten    --      4.8277                50.5650                19.1091

                     34                     35                     36
                      A                      A                      A
 Frequencies --    977.5975              1003.3339              1042.5081
 Red. masses --      2.7922                 3.6097                 3.6562
 Frc consts  --      1.5722                 2.1410                 2.3412
 IR Inten    --     10.9428                13.8275                80.3577

                     37                     38                     39
                      A                      A                      A
 Frequencies --   1060.4167              1071.2401              1091.5324
 Red. masses --      2.9969                 3.1802                 2.5875
 Frc consts  --      1.9855                 2.1502                 1.8164
 IR Inten    --     85.7725                55.8670                23.3663

                     40                     41                     42
                      A                      A                      A
 Frequencies --   1121.8135              1136.9499              1157.5469
 Red. masses --      2.7759                 5.4899                 3.3783
 Frc consts  --      2.0582                 4.1812                 2.6670
 IR Inten    --     36.9097               288.8220               159.8637

                     43                     44                     45
                      A                      A                      A
 Frequencies --   1159.8906              1173.0636              1185.9894
 Red. masses --      3.1619                 1.8780                 1.3387
 Frc consts  --      2.5063                 1.5226                 1.1095
 IR Inten    --     82.6778                72.6866                10.4748

                     46                     47                     48
                      A                      A                      A
 Frequencies --   1187.8294              1189.2749              1192.1030
 Red. masses --      1.2782                 1.2722                 1.6262
 Frc consts  --      1.0626                 1.0601                 1.3616
 IR Inten    --      3.5518                 1.0852                63.4108

                     49                     50                     51
                      A                      A                      A
 Frequencies --   1222.7201              1228.5803              1230.7071
 Red. masses --      1.5611                 1.6317                 1.5661
 Frc consts  --      1.3751                 1.4511                 1.3976
 IR Inten    --     24.5639                33.5172                36.8687

                     52                     53                     54
                      A                      A                      A
 Frequencies --   1236.3839              1253.7228              1272.5158
 Red. masses --      1.8109                 1.5561                 1.1248
 Frc consts  --      1.6310                 1.4411                 1.0732
 IR Inten    --     83.4299                30.6369                30.7198

                     55                     56                     57
                      A                      A                      A
 Frequencies --   1303.5043              1319.9629              1330.5575
 Red. masses --      1.2650                 1.2463                 1.3389
 Frc consts  --      1.2664                 1.2793                 1.3966
 IR Inten    --     39.6566                12.0617                 3.7743

                     58                     59                     60
                      A                      A                      A
 Frequencies --   1360.7927              1384.9270              1410.2739
 Red. masses --      1.2123                 1.3126                 1.3783
 Frc consts  --      1.3226                 1.4834                 1.6151
 IR Inten    --     13.4757                19.1999                46.5945

                     61                     62                     63
                      A                      A                      A
 Frequencies --   1416.4852              1432.9459              1457.7812
 Red. masses --      1.4581                 1.3337                 1.1642
 Frc consts  --      1.7237                 1.6135                 1.4577
 IR Inten    --      7.5949                17.4804                25.6547

                     64                     65                     66
                      A                      A                      A
 Frequencies --   1496.1808              1498.4296              1500.6429
 Red. masses --      1.1367                 1.1383                 1.1411
 Frc consts  --      1.4993                 1.5059                 1.5140
 IR Inten    --      1.1223                 4.0663                 1.0577

                     67                     68                     69
                      A                      A                      A
 Frequencies --   1502.8358              1508.8763              1510.2356
 Red. masses --      1.1188                 1.0580                 1.0482
 Frc consts  --      1.4888                 1.4192                 1.4085
 IR Inten    --      1.0376                 9.2751                 9.7863

                     70                     71                     72
                      A                      A                      A
 Frequencies --   1511.2313              1519.3485              1523.6339
 Red. masses --      1.0824                 1.0463                 1.0620
 Frc consts  --      1.4564                 1.4230                 1.4525
 IR Inten    --      5.5998                 5.5036                12.8652

                     73                     74                     75
                      A                      A                      A
 Frequencies --   1528.0723              1534.7951              1535.7780
 Red. masses --      1.0516                 1.0550                 1.0513
 Frc consts  --      1.4467                 1.4642                 1.4609
 IR Inten    --     22.1897                14.5097                26.0503

                     76                     77                     78
                      A                      A                      A
 Frequencies --   1537.8706              1643.3386              3012.1469
 Red. masses --      1.0902                 6.2422                 1.0787
 Frc consts  --      1.5191                 9.9321                 5.7662
 IR Inten    --      3.7235               204.6262                21.5359

                     79                     80                     81
                      A                      A                      A
 Frequencies --   3020.9288              3034.1131              3036.4775
 Red. masses --      1.0568                 1.0346                 1.0393
 Frc consts  --      5.6823                 5.6116                 5.6458
 IR Inten    --     27.5426                64.2778                58.1826

                     82                     83                     84
                      A                      A                      A
 Frequencies --   3039.6238              3047.5774              3056.7565
 Red. masses --      1.0417                 1.0410                 1.0744
 Frc consts  --      5.6707                 5.6966                 5.9146
 IR Inten    --     39.0089                15.8109                33.2212

                     85                     86                     87
                      A                      A                      A
 Frequencies --   3063.1304              3094.9675              3100.1948
 Red. masses --      1.1052                 1.1073                 1.0858
 Frc consts  --      6.1099                 6.2494                 6.1486
 IR Inten    --     42.3758                41.7306                10.7494

                     88                     89                     90
                      A                      A                      A
 Frequencies --   3115.8416              3116.6766              3126.2484
 Red. masses --      1.1069                 1.0974                 1.0965
 Frc consts  --      6.3314                 6.2804                 6.3138
 IR Inten    --     46.0907                36.0222                31.0625

                     91                     92                     93
                      A                      A                      A
 Frequencies --   3164.3137              3168.4760              3170.1052
 Red. masses --      1.1047                 1.1012                 1.1017
 Frc consts  --      6.5170                 6.5135                 6.5233
 IR Inten    --     25.5866                20.4027                19.6234

                     94                     95                     96
                      A                      A                      A
 Frequencies --   3179.9970              3184.1802              3193.3084
 Red. masses --      1.1039                 1.0881                 1.0947
 Frc consts  --      6.5772                 6.4997                 6.5769
 IR Inten    --     15.9443                 0.7655                 2.0223

 - Thermochemistry -
 -------------------
 Temperature   298.150 Kelvin.  Pressure   1.00000 Atm.
 Atom     1 has atomic number  6 and mass  12.00000

 Molecular mass:   219.12325 amu.
 Principal axes and moments of inertia in atomic units:
                           1         2         3
     Eigenvalues --  2804.183453482.737424472.40372
           X            0.99978  -0.00358   0.02064
           Y            0.00335   0.99993   0.01160
           Z           -0.02068  -0.01153   0.99972
 This molecule is an asymmetric top.
 Rotational symmetry number  1.
 Warning -- assumption of classical behavior for rotation
           may cause significant error
 Rotational temperatures (Kelvin)      0.03089     0.02487     0.01937
 Rotational constants (GHZ):           0.64359     0.51820     0.40353
 Zero-point vibrational energy     774719.5 (Joules/Mol)
                                  185.16239 (Kcal/Mol)
 Warning -- explicit consideration of  26 degrees of freedom as
           vibrations may cause significant error
 Vibrational temperatures:     53.36    92.07   109.75   128.54   146.73
          (Kelvin)            168.32   182.94   203.78   239.27   261.36
                              265.76   301.77   325.30   338.77   380.57
                              414.27   422.06   474.76   499.02   519.77
                              566.80   604.91   695.38   769.70   808.03
                              854.49   959.01  1044.71  1104.82  1202.23
                             1318.92  1349.54  1370.37  1406.54  1443.57
                             1499.94  1525.70  1541.28  1570.47  1614.04
                             1635.82  1665.45  1668.82  1687.78  1706.37
                             1709.02  1711.10  1715.17  1759.22  1767.65
                             1770.71  1778.88  1803.83  1830.87  1875.45
                             1899.13  1914.38  1957.88  1992.60  2029.07
                             2038.01  2061.69  2097.42  2152.67  2155.91
                             2159.09  2162.25  2170.94  2172.89  2174.32
                             2186.00  2192.17  2198.56  2208.23  2209.64
                             2212.65  2364.40  4333.81  4346.44  4365.41
                             4368.81  4373.34  4384.78  4397.99  4407.16
                             4452.97  4460.49  4483.00  4484.20  4497.97
                             4552.74  4558.73  4561.07  4575.31  4581.33
                             4594.46

 Zero-point correction=                           0.295075 (Hartree/Particle)
 Thermal correction to Energy=                    0.312181
 Thermal correction to Enthalpy=                  0.313125
 Thermal correction to Gibbs Free Energy=         0.250448
 Sum of electronic and zero-point Energies=           -768.034061
 Sum of electronic and thermal Energies=              -768.016955
 Sum of electronic and thermal Enthalpies=            -768.016011
 Sum of electronic and thermal Free Energies=         -768.078688

                     E (Thermal)             CV                S
                      KCal/Mol        Cal/Mol-Kelvin    Cal/Mol-Kelvin
 Total                  195.897             61.463            131.915
 Electronic               0.000              0.000              0.000
 Translational            0.889              2.981             42.056
 Rotational               0.889              2.981             32.146
 Vibrational            194.119             55.501             57.712
 Vibration     1          0.594              1.982              5.409
 Vibration     2          0.597              1.971              4.330
 Vibration     3          0.599              1.965              3.984
 Vibration     4          0.602              1.957              3.674
 Vibration     5          0.604              1.948              3.416
 Vibration     6          0.608              1.935              3.150
 Vibration     7          0.611              1.926              2.989
 Vibration     8          0.615              1.912              2.782
 Vibration     9          0.624              1.884              2.477
 Vibration    10          0.630              1.865              2.311
 Vibration    11          0.631              1.861              2.280
 Vibration    12          0.642              1.826              2.046
 Vibration    13          0.650              1.801              1.910
 Vibration    14          0.655              1.787              1.837
 Vibration    15          0.671              1.738              1.632
 Vibration    16          0.685              1.696              1.486
 Vibration    17          0.688              1.686              1.455
 Vibration    18          0.713              1.616              1.260
 Vibration    19          0.725              1.582              1.181
 Vibration    20          0.735              1.552              1.117
 Vibration    21          0.761              1.483              0.985
 Vibration    22          0.783              1.426              0.890
 Vibration    23          0.839              1.287              0.701
 Vibration    24          0.890              1.173              0.576
 Vibration    25          0.917              1.114              0.521
 Vibration    26          0.952              1.045              0.460

 Optimization completed.
    -- Stationary point found.
 Normal termination of Gaussian 16 at Fri May 24 08:53:14 2019.
