 Gaussian 16, Revision A.03,
 Gaussian 16:  ES64L-G16RevA.03 25-Dec-2016

 -------------------------------------------------------------------
 #p b3lyp 6-31g* opt freq=noraman scrf=(pcm,solvent=tetrahydrofuran)
 -------------------------------------------------------------------

 -----
 title
 -----
 Symbolic Z-matrix:
 Charge =  1 Multiplicity = 1

 SCF Done:  E(RB3LYP) =  -768.325280391     A.U. after   13 cycles
 Optimization completed.
    -- Stationary point found.
 Normal termination of Gaussian 16 at Fri May 24 08:39:03 2019.

 --------------------------------------------------------------------
 #P Geom=AllCheck Guess=TCheck SCRF=Check GenChk RB3LYP/6-31G(d) Freq
 --------------------------------------------------------------------

 Structure from the checkpoint file:  "/scratch/Gau-27221.chk"
 -----
 title
 -----
 Charge =  1 Multiplicity = 1

                         Standard orientation:
 ---------------------------------------------------------------------
 Center     Atomic      Atomic             Coordinates (Angstroms)
 Number     Number       Type             X           Y           Z
 ---------------------------------------------------------------------
      1          6           0       -1.101536    0.395840   -0.002169
      2          6           0       -0.854757   -1.156048   -0.021888
      3          6           0       -0.064635   -1.456937   -1.244391
      4          6           0        1.300344    0.531104   -0.948162
      5          6           0        0.286088    1.060648    0.108134
      6          1           0       -0.263249   -2.344454   -1.848364
      7          1           0       -0.180005   -1.402879    0.816151
      8          1           0       -1.577225    0.682640   -0.944479
      9          1           0        1.427898    1.242641   -1.762976
     10          1           0        0.699163    0.809669    1.088012
     11          8           0        0.841609   -0.709877   -1.690557
     12          8           0       -1.965218   -1.986263    0.114517
     13          8           0       -2.014785    0.790750    0.978888
     14          8           0        0.279112    2.468939    0.080499
     15          6           0        2.639580    0.136366   -0.353185
     16          1           0        3.073914    1.041095    0.099856
     17          1           0        3.321777   -0.216163   -1.139654
     18          8           0        2.385062   -0.869512    0.602140
     19          6           0       -3.090522   -1.699654   -0.732455
     20          1           0       -3.809743   -2.495604   -0.537930
     21          1           0       -3.535774   -0.733373   -0.480203
     22          1           0       -2.816770   -1.722356   -1.795795
     23          6           0       -1.697043    0.516557    2.346879
     24          1           0       -1.546178   -0.555870    2.518504
     25          1           0       -0.818527    1.076658    2.684535
     26          1           0       -2.566795    0.845147    2.917274
     27          6           0       -0.496779    3.108490   -0.936653
     28          1           0       -0.240214    4.167401   -0.879749
     29          1           0       -0.253020    2.742249   -1.943104
     30          1           0       -1.569933    2.988215   -0.753468
     31          6           0        3.560416   -1.324055    1.271330
     32          1           0        4.279080   -1.748826    0.558260
     33          1           0        3.242136   -2.097463    1.972028
     34          1           0        4.040289   -0.504884    1.822574
 ---------------------------------------------------------------------

 SCF Done:  E(RB3LYP) =  -768.325280391     A.U. after    1 cycles

 The electronic state is 1-A.
 Alpha  occ. eigenvalues --  -19.32837 -19.20715 -19.19916 -19.19525 -19.19445
 Alpha  occ. eigenvalues --  -10.39498 -10.32288 -10.31764 -10.30138 -10.29642
 Alpha  occ. eigenvalues --  -10.28326 -10.25886 -10.25360 -10.25337 -10.25234
 Alpha  occ. eigenvalues --   -1.21539  -1.09807  -1.08248  -1.07556  -1.06698
 Alpha  occ. eigenvalues --   -0.87157  -0.85872  -0.77748  -0.75562  -0.74710
 Alpha  occ. eigenvalues --   -0.71877  -0.69626  -0.67682  -0.65707  -0.62192
 Alpha  occ. eigenvalues --   -0.60011  -0.58658  -0.56335  -0.54611  -0.54371
 Alpha  occ. eigenvalues --   -0.52807  -0.52166  -0.51245  -0.50573  -0.48942
 Alpha  occ. eigenvalues --   -0.48465  -0.47858  -0.46994  -0.46087  -0.45025
 Alpha  occ. eigenvalues --   -0.44071  -0.43319  -0.42845  -0.42275  -0.41664
 Alpha  occ. eigenvalues --   -0.40284  -0.37015  -0.36410  -0.35829  -0.34796
 Alpha  occ. eigenvalues --   -0.32480  -0.30746  -0.29908  -0.28745
 Alpha virt. eigenvalues --   -0.15043  -0.00291   0.04095   0.05553   0.05778
 Alpha virt. eigenvalues --    0.07293   0.07649   0.08326   0.09031   0.09893
 Alpha virt. eigenvalues --    0.11157   0.11918   0.12280   0.12915   0.13512

 Mulliken charges:
               1
     1  C    0.082316
     2  C    0.022104
     3  C    0.285740
     4  C    0.035023
     5  C    0.101178
     6  H    0.279735
     7  H    0.254571
     8  H    0.192462
     9  H    0.241993
    10  H    0.202718
    11  O   -0.301273
    12  O   -0.472777
    13  O   -0.465376
    14  O   -0.481332
    15  C   -0.034338
    16  H    0.192278
    17  H    0.185321
    18  O   -0.491567
    19  C   -0.244842
    20  H    0.197229
    21  H    0.186997
    22  H    0.160715
    23  C   -0.242657
    24  H    0.169776
    25  H    0.173004
    26  H    0.192333
    27  C   -0.241524
    28  H    0.190335
    29  H    0.156985
    30  H    0.175653
    31  C   -0.213010
    32  H    0.163045
    33  H    0.182504
    34  H    0.164683
 Sum of Mulliken charges =   1.00000

 Dipole moment (field-independent basis, Debye):
    X=              2.1426    Y=             -2.1745    Z=             -3.9410  Tot=              4.9850
 Quadrupole moment (field-independent basis, Debye-Ang):
   XX=            -64.6047   YY=            -77.5623   ZZ=            -72.5074
   XY=              0.1454   XZ=              3.6437   YZ=              0.3713

  Exact polarizability: 152.698   4.428 145.902  -6.934   3.105 134.671
 Approx polarizability: 167.399   4.664 167.497 -10.520   3.939 161.795

                      1                      2                      3
                      A                      A                      A
 Frequencies --     32.8578                60.6835                65.4981
 Red. masses --      4.3792                 2.9016                 2.6049
 Frc consts  --      0.0028                 0.0063                 0.0066
 IR Inten    --      1.0869                 1.2535                 4.5674

                      4                      5                      6
                      A                      A                      A
 Frequencies --     79.3672               105.6951               119.6016
 Red. masses --      3.2734                 2.8644                 2.3381
 Frc consts  --      0.0121                 0.0189                 0.0197
 IR Inten    --      1.9194                 4.7674                 4.6787

                      7                      8                      9
                      A                      A                      A
 Frequencies --    120.9900               158.6949               174.5009
 Red. masses --      2.9008                 3.1148                 2.7424
 Frc consts  --      0.0250                 0.0462                 0.0492
 IR Inten    --      6.5527                 1.3069                 9.5585

                     10                     11                     12
                      A                      A                      A
 Frequencies --    188.4229               215.6931               223.0273
 Red. masses --      1.5584                 1.3867                 1.3645
 Frc consts  --      0.0326                 0.0380                 0.0400
 IR Inten    --      0.4259                 2.4363                 0.8066

                     13                     14                     15
                      A                      A                      A
 Frequencies --    227.5566               251.5829               259.5089
 Red. masses --      1.4384                 2.1639                 2.8131
 Frc consts  --      0.0439                 0.0807                 0.1116
 IR Inten    --      7.8012                 9.3805                 7.8471

                     16                     17                     18
                      A                      A                      A
 Frequencies --    277.1605               297.4606               324.5749
 Red. masses --      2.6911                 3.0237                 3.5592
 Frc consts  --      0.1218                 0.1576                 0.2209
 IR Inten    --      5.6174                 2.1922                 4.4389

                     19                     20                     21
                      A                      A                      A
 Frequencies --    342.6651               352.4088               394.5658
 Red. masses --      4.1092                 3.5297                 4.1456
 Frc consts  --      0.2843                 0.2583                 0.3803
 IR Inten    --     12.2651                 2.9483                10.3220

                     22                     23                     24
                      A                      A                      A
 Frequencies --    451.6944               478.8264               532.3555
 Red. masses --      4.4599                 3.4395                 4.1256
 Frc consts  --      0.5361                 0.4646                 0.6889
 IR Inten    --      1.6010                19.5688                 4.3058

                     25                     26                     27
                      A                      A                      A
 Frequencies --    556.4728               621.4695               655.4519
 Red. masses --      5.0384                 3.0926                 4.0882
 Frc consts  --      0.9193                 0.7037                 1.0348
 IR Inten    --     19.7216                26.3187                19.4817

                     28                     29                     30
                      A                      A                      A
 Frequencies --    713.2805               752.2889               839.6414
 Red. masses --      4.7341                 4.1334                 2.7370
 Frc consts  --      1.4191                 1.3782                 1.1369
 IR Inten    --     81.4415                51.8056                51.6281

                     31                     32                     33
                      A                      A                      A
 Frequencies --    906.2520               922.8400               949.5091
 Red. masses --      3.2029                 3.9385                 3.4961
 Frc consts  --      1.5499                 1.9762                 1.8571
 IR Inten    --      3.0943                14.2527                 3.4376

                     34                     35                     36
                      A                      A                      A
 Frequencies --    967.8066              1000.2904              1026.4390
 Red. masses --      3.7076                 2.6358                 4.1087
 Frc consts  --      2.0461                 1.5539                 2.5505
 IR Inten    --     71.8824                33.5614                68.5037

                     37                     38                     39
                      A                      A                      A
 Frequencies --   1046.2503              1063.8894              1105.8083
 Red. masses --      2.6945                 3.1750                 2.1023
 Frc consts  --      1.7378                 2.1173                 1.5146
 IR Inten    --     48.4045                70.9598                 0.1822

                     40                     41                     42
                      A                      A                      A
 Frequencies --   1112.2780              1141.2471              1158.0980
 Red. masses --      3.5010                 3.5699                 3.3242
 Frc consts  --      2.5519                 2.7395                 2.6268
 IR Inten    --     39.3892               240.3322               105.8437

                     43                     44                     45
                      A                      A                      A
 Frequencies --   1175.7850              1176.4010              1180.1008
 Red. masses --      1.6375                 2.1418                 1.4967
 Frc consts  --      1.3338                 1.7464                 1.2281
 IR Inten    --     61.6161                86.2700                27.8947

                     46                     47                     48
                      A                      A                      A
 Frequencies --   1187.1641              1190.1759              1199.2574
 Red. masses --      1.3442                 1.3468                 2.0925
 Frc consts  --      1.1162                 1.1240                 1.7731
 IR Inten    --      7.6854                 4.6699                90.0844

                     49                     50                     51
                      A                      A                      A
 Frequencies --   1225.2876              1229.7300              1232.0247
 Red. masses --      1.6371                 1.6950                 1.6341
 Frc consts  --      1.4481                 1.5103                 1.4614
 IR Inten    --     62.7456                77.0718                32.6013

                     52                     53                     54
                      A                      A                      A
 Frequencies --   1239.2179              1252.1104              1269.7194
 Red. masses --      1.7781                 1.5689                 1.1191
 Frc consts  --      1.6088                 1.4492                 1.0630
 IR Inten    --     94.2800                23.1571                25.0403

                     55                     56                     57
                      A                      A                      A
 Frequencies --   1310.3012              1318.3314              1347.4312
 Red. masses --      1.3339                 1.2366                 1.2623
 Frc consts  --      1.3493                 1.2663                 1.3503
 IR Inten    --     33.9395                21.2661                 2.5845

                     58                     59                     60
                      A                      A                      A
 Frequencies --   1366.8549              1396.7853              1411.0639
 Red. masses --      1.2948                 1.3572                 1.3502
 Frc consts  --      1.4252                 1.5601                 1.5840
 IR Inten    --     18.5764                34.2621                13.9699

                     61                     62                     63
                      A                      A                      A
 Frequencies --   1422.7049              1431.3031              1448.0085
 Red. masses --      1.3324                 1.2519                 1.2120
 Frc consts  --      1.5890                 1.5110                 1.4973
 IR Inten    --      7.3088                17.1245                15.4058

                     64                     65                     66
                      A                      A                      A
 Frequencies --   1496.3049              1499.1908              1501.0739
 Red. masses --      1.1459                 1.1373                 1.1432
 Frc consts  --      1.5116                 1.5060                 1.5177
 IR Inten    --      2.0494                 4.4211                 1.3227

                     67                     68                     69
                      A                      A                      A
 Frequencies --   1503.8894              1509.6218              1516.0269
 Red. masses --      1.1503                 1.0463                 1.0492
 Frc consts  --      1.5328                 1.4049                 1.4207
 IR Inten    --      1.4518                 9.8103                 7.8444

                     70                     71                     72
                      A                      A                      A
 Frequencies --   1517.7494              1518.2734              1522.7409
 Red. masses --      1.0472                 1.0501                 1.0652
 Frc consts  --      1.4212                 1.4262                 1.4552
 IR Inten    --      3.3698                24.0893                14.7578

                     73                     74                     75
                      A                      A                      A
 Frequencies --   1525.9761              1535.1204              1537.5453
 Red. masses --      1.0482                 1.0502                 1.0880
 Frc consts  --      1.4381                 1.4581                 1.5155
 IR Inten    --      8.2306                15.8720                 9.6279

                     76                     77                     78
                      A                      A                      A
 Frequencies --   1539.0043              1643.3006              3003.0557
 Red. masses --      1.0516                 6.6276                 1.0792
 Frc consts  --      1.4675                10.5448                 5.7345
 IR Inten    --     19.4921               208.3786                21.5184

                     79                     80                     81
                      A                      A                      A
 Frequencies --   3019.9742              3032.3483              3033.3557
 Red. masses --      1.0564                 1.0355                 1.0389
 Frc consts  --      5.6768                 5.6100                 5.6320
 IR Inten    --     28.3601                71.4051                33.6800

                     82                     83                     84
                      A                      A                      A
 Frequencies --   3038.9686              3048.7426              3064.2191
 Red. masses --      1.0423                 1.0337                 1.1052
 Frc consts  --      5.6714                 5.6609                 6.1140
 IR Inten    --     40.5234                35.2939                43.2315

                     85                     86                     87
                      A                      A                      A
 Frequencies --   3092.3345              3093.2219              3105.8992
 Red. masses --      1.1072                 1.0865                 1.1002
 Frc consts  --      6.2383                 6.1247                 6.2533
 IR Inten    --     41.6431                11.9025                44.6887

                     88                     89                     90
                      A                      A                      A
 Frequencies --   3113.8912              3121.5171              3127.2635
 Red. masses --      1.0996                 1.0924                 1.0955
 Frc consts  --      6.2822                 6.2714                 6.3123
 IR Inten    --     35.1647                27.7029                30.2797

                     91                     92                     93
                      A                      A                      A
 Frequencies --   3167.1075              3167.1886              3170.4832
 Red. masses --      1.1010                 1.1014                 1.1016
 Frc consts  --      6.5069                 6.5093                 6.5243
 IR Inten    --     26.3206                17.9541                20.1369

                     94                     95                     96
                      A                      A                      A
 Frequencies --   3177.8073              3181.5654              3191.9991
 Red. masses --      1.0879                 1.1040                 1.0948
 Frc consts  --      6.4730                 6.5842                 6.5723
 IR Inten    --      0.1294                15.0526                 1.8151

 - Thermochemistry -
 -------------------
 Temperature   298.150 Kelvin.  Pressure   1.00000 Atm.
 Atom     1 has atomic number  6 and mass  12.00000

 Molecular mass:   219.12325 amu.
 Principal axes and moments of inertia in atomic units:
                           1         2         3
     Eigenvalues --  2646.497143683.431914547.10829
           X            0.99977  -0.01039   0.01854
           Y            0.01092   0.99953  -0.02866
           Z           -0.01823   0.02886   0.99942
 This molecule is an asymmetric top.
 Rotational symmetry number  1.
 Warning -- assumption of classical behavior for rotation
           may cause significant error
 Rotational temperatures (Kelvin)      0.03273     0.02351     0.01905
 Rotational constants (GHZ):           0.68194     0.48996     0.39690
 Zero-point vibrational energy     775187.5 (Joules/Mol)
                                  185.27425 (Kcal/Mol)
 Warning -- explicit consideration of  25 degrees of freedom as
           vibrations may cause significant error
 Vibrational temperatures:     47.28    87.31    94.24   114.19   152.07
          (Kelvin)            172.08   174.08   228.33   251.07   271.10
                              310.33   320.89   327.40   361.97   373.38
                              398.77   427.98   466.99   493.02   507.04
                              567.69   649.89   688.92   765.94   800.64
                              894.16   943.05  1026.25  1082.38  1208.06
                             1303.89  1327.76  1366.13  1392.46  1439.19
                             1476.82  1505.32  1530.70  1591.01  1600.32
                             1642.00  1666.24  1691.69  1692.58  1697.90
                             1708.06  1712.40  1725.46  1762.92  1769.31
                             1772.61  1782.96  1801.51  1826.84  1885.23
                             1896.78  1938.65  1966.60  2009.66  2030.21
                             2046.95  2059.33  2083.36  2152.85  2157.00
                             2159.71  2163.76  2172.01  2181.22  2183.70
                             2184.46  2190.88  2195.54  2208.70  2212.18
                             2214.28  2364.34  4320.73  4345.07  4362.87
                             4364.32  4372.40  4386.46  4408.73  4449.18
                             4450.46  4468.70  4480.19  4491.17  4499.43
                             4556.76  4556.88  4561.62  4572.16  4577.56
                             4592.57

 Zero-point correction=                           0.295253 (Hartree/Particle)
 Thermal correction to Energy=                    0.312291
 Thermal correction to Enthalpy=                  0.313235
 Thermal correction to Gibbs Free Energy=         0.250523
 Sum of electronic and zero-point Energies=           -768.030027
 Sum of electronic and thermal Energies=              -768.012989
 Sum of electronic and thermal Enthalpies=            -768.012045
 Sum of electronic and thermal Free Energies=         -768.074758

                     E (Thermal)             CV                S
                      KCal/Mol        Cal/Mol-Kelvin    Cal/Mol-Kelvin
 Total                  195.966             61.417            131.990
 Electronic               0.000              0.000              0.000
 Translational            0.889              2.981             42.056
 Rotational               0.889              2.981             32.161
 Vibrational            194.188             55.455             57.772
 Vibration     1          0.594              1.983              5.649
 Vibration     2          0.597              1.973              4.435
 Vibration     3          0.597              1.971              4.284
 Vibration     4          0.600              1.963              3.906
 Vibration     5          0.605              1.945              3.346
 Vibration     6          0.609              1.933              3.107
 Vibration     7          0.609              1.932              3.084
 Vibration     8          0.621              1.893              2.565
 Vibration     9          0.627              1.874              2.386
 Vibration    10          0.633              1.856              2.243
 Vibration    11          0.645              1.817              1.995
 Vibration    12          0.649              1.806              1.934
 Vibration    13          0.651              1.799              1.898
 Vibration    14          0.664              1.760              1.719
 Vibration    15          0.668              1.747              1.665
 Vibration    16          0.678              1.716              1.551
 Vibration    17          0.691              1.678              1.431
 Vibration    18          0.709              1.626              1.287
 Vibration    19          0.722              1.590              1.200
 Vibration    20          0.729              1.570              1.155
 Vibration    21          0.762              1.482              0.983
 Vibration    22          0.810              1.357              0.791
 Vibration    23          0.835              1.297              0.713
 Vibration    24          0.887              1.178              0.582
 Vibration    25          0.912              1.126              0.531

                           ! Non-Optimized Parameters !
 Normal termination of Gaussian 16 at Fri May 24 09:34:22 2019.
