 Gaussian 16, Revision A.03,
 Gaussian 16:  ES64L-G16RevA.03 25-Dec-2016

 -------------------------------------------------------------------
 #p b3lyp 6-31g* opt freq=noraman scrf=(pcm,solvent=tetrahydrofuran)
 -------------------------------------------------------------------

 -----
 title
 -----
 Symbolic Z-matrix:
 Charge =  1 Multiplicity = 1

 SCF Done:  E(RB3LYP) =  -768.324846637     A.U. after   14 cycles
 Optimization completed.
    -- Stationary point found.
 Normal termination of Gaussian 16 at Fri May 24 08:37:57 2019.

 --------------------------------------------------------------------
 #P Geom=AllCheck Guess=TCheck SCRF=Check GenChk RB3LYP/6-31G(d) Freq
 --------------------------------------------------------------------

 Structure from the checkpoint file:  "/scratch/Gau-30716.chk"
 -----
 title
 -----
 Charge =  1 Multiplicity = 1

                         Standard orientation:
 ---------------------------------------------------------------------
 Center     Atomic      Atomic             Coordinates (Angstroms)
 Number     Number       Type             X           Y           Z
 ---------------------------------------------------------------------
      1          6           0        1.173143    0.987979    0.091106
      2          6           0        2.110305   -0.204781   -0.166766
      3          6           0        1.538680   -0.857025   -1.404918
      4          6           0       -0.615834   -0.829887   -0.323960
      5          6           0       -0.278191    0.515160    0.362821
      6          1           0        2.110161   -1.131996   -2.292235
      7          1           0        3.131402    0.138200   -0.356727
      8          1           0        1.530734    1.554704    0.959385
      9          1           0       -0.449150   -1.635840    0.390171
     10          1           0       -0.955038    1.282029   -0.031743
     11          8           0        0.320883   -1.152990   -1.463001
     12          8           0        2.026698   -1.128342    0.892888
     13          8           0        1.261756    1.720859   -1.120010
     14          8           0       -0.501666    0.304992    1.740810
     15          6           0       -1.995548   -0.906362   -0.970318
     16          1           0       -2.144451   -1.903306   -1.411713
     17          1           0       -2.067225   -0.161062   -1.779098
     18          8           0       -2.920707   -0.646402    0.056818
     19          6           0        3.149747   -2.018344    1.018963
     20          1           0        4.085234   -1.450823    1.075149
     21          1           0        2.990063   -2.559522    1.951898
     22          1           0        3.197895   -2.732411    0.189033
     23          6           0        0.959282    3.112960   -1.010488
     24          1           0        1.650955    3.603245   -0.314186
     25          1           0       -0.071729    3.282455   -0.675935
     26          1           0        1.085138    3.534322   -2.008930
     27          6           0       -1.306255    1.304627    2.367287
     28          1           0       -2.303298    1.340062    1.912749
     29          1           0       -1.393127    1.012441    3.415504
     30          1           0       -0.839129    2.296815    2.309823
     31          6           0       -4.267129   -0.653630   -0.406422
     32          1           0       -4.429901    0.121377   -1.168561
     33          1           0       -4.535828   -1.631650   -0.828900
     34          1           0       -4.897612   -0.448163    0.460441
 ---------------------------------------------------------------------

 SCF Done:  E(RB3LYP) =  -768.324846637     A.U. after    1 cycles

 The electronic state is 1-A.
 Alpha  occ. eigenvalues --  -19.33038 -19.21578 -19.19848 -19.18453 -19.18382
 Alpha  occ. eigenvalues --  -10.39602 -10.31410 -10.31335 -10.29202 -10.28956
 Alpha  occ. eigenvalues --  -10.27461 -10.26267 -10.25587 -10.24620 -10.24530
 Alpha  occ. eigenvalues --   -1.21810  -1.09719  -1.07937  -1.06982  -1.06285
 Alpha  occ. eigenvalues --   -0.86779  -0.85325  -0.76438  -0.74672  -0.73746
 Alpha  occ. eigenvalues --   -0.70919  -0.68607  -0.67443  -0.66342  -0.61022
 Alpha  occ. eigenvalues --   -0.60606  -0.58313  -0.57057  -0.54374  -0.53108
 Alpha  occ. eigenvalues --   -0.51720  -0.50816  -0.50448  -0.50352  -0.49694
 Alpha  occ. eigenvalues --   -0.48103  -0.47748  -0.46633  -0.46105  -0.45651
 Alpha  occ. eigenvalues --   -0.44182  -0.42641  -0.42027  -0.40842  -0.40080
 Alpha  occ. eigenvalues --   -0.39496  -0.37314  -0.36287  -0.35452  -0.34892
 Alpha  occ. eigenvalues --   -0.32301  -0.31097  -0.28890  -0.27958
 Alpha virt. eigenvalues --   -0.15552   0.00238   0.04590   0.05566   0.06488
 Alpha virt. eigenvalues --    0.06969   0.09100   0.09641   0.10386   0.10947
 Alpha virt. eigenvalues --    0.11464   0.12101   0.12329   0.12866   0.13566

 Mulliken charges:
               1
     1  C    0.079400
     2  C    0.047424
     3  C    0.306729
     4  C    0.055759
     5  C    0.121369
     6  H    0.279334
     7  H    0.213378
     8  H    0.197091
     9  H    0.250768
    10  H    0.187053
    11  O   -0.302254
    12  O   -0.466985
    13  O   -0.498086
    14  O   -0.481152
    15  C   -0.030376
    16  H    0.171219
    17  H    0.164310
    18  O   -0.474998
    19  C   -0.229532
    20  H    0.178560
    21  H    0.199994
    22  H    0.172343
    23  C   -0.222867
    24  H    0.170200
    25  H    0.164642
    26  H    0.187869
    27  C   -0.224096
    28  H    0.166809
    29  H    0.179749
    30  H    0.154853
    31  C   -0.210491
    32  H    0.155144
    33  H    0.157216
    34  H    0.179620
 Sum of Mulliken charges =   1.00000

 Dipole moment (field-independent basis, Debye):
    X=              3.7451    Y=             -0.6321    Z=             -3.8441  Tot=              5.4039
 Quadrupole moment (field-independent basis, Debye-Ang):
   XX=            -53.1662   YY=            -68.2486   ZZ=            -79.1744
   XY=             -6.7318   XZ=             -1.2515   YZ=              5.2136

  Exact polarizability: 158.004  -3.736 137.323  -4.048  -0.096 135.433
 Approx polarizability: 166.004  -1.517 151.707  -4.826  -1.103 162.898

                      1                      2                      3
                      A                      A                      A
 Frequencies --     29.2187                57.4250                67.3940
 Red. masses --      3.6325                 2.7245                 3.0790
 Frc consts  --      0.0018                 0.0053                 0.0082
 IR Inten    --      0.5462                 2.4391                 3.1788

                      4                      5                      6
                      A                      A                      A
 Frequencies --     71.1053                88.3879               101.2261
 Red. masses --      2.5882                 3.0366                 1.9609
 Frc consts  --      0.0077                 0.0140                 0.0118
 IR Inten    --      2.3272                 3.5629                15.0050

                      7                      8                      9
                      A                      A                      A
 Frequencies --    107.9383               113.8554               134.0323
 Red. masses --      2.2207                 2.4683                 1.9552
 Frc consts  --      0.0152                 0.0189                 0.0207
 IR Inten    --      3.4462                 1.0756                 4.8844

                     10                     11                     12
                      A                      A                      A
 Frequencies --    142.7024               148.6715               196.5894
 Red. masses --      1.7217                 2.0585                 1.2701
 Frc consts  --      0.0207                 0.0268                 0.0289
 IR Inten    --      1.2586                 4.3030                 0.6606

                     13                     14                     15
                      A                      A                      A
 Frequencies --    210.7043               234.7139               240.1023
 Red. masses --      2.2999                 1.3697                 3.8230
 Frc consts  --      0.0602                 0.0445                 0.1299
 IR Inten    --      7.5362                 5.8278                 6.5034

                     16                     17                     18
                      A                      A                      A
 Frequencies --    283.4487               293.3054               312.5554
 Red. masses --      3.3722                 3.4080                 3.5799
 Frc consts  --      0.1596                 0.1727                 0.2061
 IR Inten    --     11.7001                14.5883                 3.6783

                     19                     20                     21
                      A                      A                      A
 Frequencies --    331.9443               368.2865               388.0674
 Red. masses --      4.0996                 4.1224                 3.7279
 Frc consts  --      0.2661                 0.3294                 0.3308
 IR Inten    --      9.0547                16.5574                 6.1755

                     22                     23                     24
                      A                      A                      A
 Frequencies --    425.4753               446.1112               482.0949
 Red. masses --      4.2840                 3.4413                 5.2962
 Frc consts  --      0.4569                 0.4035                 0.7252
 IR Inten    --     10.5819                 8.4880                 7.3979

                     25                     26                     27
                      A                      A                      A
 Frequencies --    539.5956               563.2900               613.5498
 Red. masses --      3.3235                 4.5001                 4.2842
 Frc consts  --      0.5701                 0.8413                 0.9502
 IR Inten    --     21.3960                11.7364                28.3221

                     28                     29                     30
                      A                      A                      A
 Frequencies --    800.3107               865.3009               879.8306
 Red. masses --      6.9444                 3.3881                 2.4619
 Frc consts  --      2.6206                 1.4947                 1.1229
 IR Inten    --     55.2933                47.5543                 9.1623

                     31                     32                     33
                      A                      A                      A
 Frequencies --    902.9850               945.0685               960.4402
 Red. masses --      3.7828                 4.7306                 2.0388
 Frc consts  --      1.8173                 2.4894                 1.1081
 IR Inten    --      7.9347                19.6155                32.5089

                     34                     35                     36
                      A                      A                      A
 Frequencies --    980.9626              1007.2806              1022.0677
 Red. masses --      3.7746                 4.3594                 2.6337
 Frc consts  --      2.1400                 2.6060                 1.6210
 IR Inten    --     13.9273                68.8716                29.6380

                     37                     38                     39
                      A                      A                      A
 Frequencies --   1053.2340              1094.0913              1120.9042
 Red. masses --      3.2219                 2.0104                 3.6283
 Frc consts  --      2.1058                 1.4179                 2.6859
 IR Inten    --      6.6598                34.1122                69.6081

                     40                     41                     42
                      A                      A                      A
 Frequencies --   1125.8134              1136.2742              1146.0116
 Red. masses --      2.7003                 4.4390                 4.0641
 Frc consts  --      2.0165                 3.3768                 3.1448
 IR Inten    --     78.4018               258.9070               202.6432

                     43                     44                     45
                      A                      A                      A
 Frequencies --   1153.7082              1169.7168              1180.3527
 Red. masses --      2.5807                 3.3957                 1.2661
 Frc consts  --      2.0238                 2.7374                 1.0393
 IR Inten    --     57.0461               155.6304                 3.9196

                     46                     47                     48
                      A                      A                      A
 Frequencies --   1182.8978              1185.8798              1189.7100
 Red. masses --      1.2736                 1.2722                 1.3156
 Frc consts  --      1.0500                 1.0541                 1.0971
 IR Inten    --      1.6083                 4.9813                 6.1337

                     49                     50                     51
                      A                      A                      A
 Frequencies --   1216.1970              1220.7800              1229.6241
 Red. masses --      1.5402                 1.5438                 1.5089
 Frc consts  --      1.3422                 1.3555                 1.3442
 IR Inten    --     40.5135                38.7629                40.6423

                     52                     53                     54
                      A                      A                      A
 Frequencies --   1237.3196              1250.1426              1278.3798
 Red. masses --      1.7247                 1.4273                 1.4077
 Frc consts  --      1.5557                 1.3143                 1.3554
 IR Inten    --     31.6788                14.4227                12.8514

                     55                     56                     57
                      A                      A                      A
 Frequencies --   1308.9814              1325.4733              1337.7584
 Red. masses --      1.2648                 1.1824                 1.2744
 Frc consts  --      1.2768                 1.2239                 1.3437
 IR Inten    --     17.4286                 6.7269                 7.3379

                     58                     59                     60
                      A                      A                      A
 Frequencies --   1353.2857              1374.7514              1390.1551
 Red. masses --      1.2301                 1.3165                 1.4626
 Frc consts  --      1.3273                 1.4659                 1.6654
 IR Inten    --     11.4975                16.4227                24.2886

                     61                     62                     63
                      A                      A                      A
 Frequencies --   1411.9167              1427.9369              1448.9167
 Red. masses --      1.3722                 1.3997                 1.3918
 Frc consts  --      1.6117                 1.6815                 1.7216
 IR Inten    --     12.8241                24.7613                32.8953

                     64                     65                     66
                      A                      A                      A
 Frequencies --   1493.9711              1497.2383              1500.0719
 Red. masses --      1.1260                 1.1388                 1.1453
 Frc consts  --      1.4807                 1.5040                 1.5184
 IR Inten    --      2.4893                 0.4918                 0.5612

                     67                     68                     69
                      A                      A                      A
 Frequencies --   1501.9608              1509.1161              1509.9366
 Red. masses --      1.1598                 1.0543                 1.0466
 Frc consts  --      1.5416                 1.4147                 1.4058
 IR Inten    --      0.5020                11.8206                 8.7502

                     70                     71                     72
                      A                      A                      A
 Frequencies --   1510.1170              1517.2408              1523.1563
 Red. masses --      1.0466                 1.0545                 1.0606
 Frc consts  --      1.4062                 1.4303                 1.4498
 IR Inten    --     13.9760                 3.4057                21.5131

                     73                     74                     75
                      A                      A                      A
 Frequencies --   1524.3760              1526.8274              1527.4354
 Red. masses --      1.0580                 1.0589                 1.0624
 Frc consts  --      1.4485                 1.4544                 1.4604
 IR Inten    --      2.1945                32.3990                 4.7486

                     76                     77                     78
                      A                      A                      A
 Frequencies --   1555.6662              1649.6135              2999.3199
 Red. masses --      1.0870                 6.7480                 1.0570
 Frc consts  --      1.5499                10.8190                 5.6021
 IR Inten    --      1.2037               178.2491                38.8670

                     79                     80                     81
                      A                      A                      A
 Frequencies --   3021.3673              3032.5210              3037.0923
 Red. masses --      1.0360                 1.0359                 1.0337
 Frc consts  --      5.5721                 5.6129                 5.6180
 IR Inten    --     73.1404                62.1224                47.1589

                     82                     83                     84
                      A                      A                      A
 Frequencies --   3043.0768              3051.6712              3070.8792
 Red. masses --      1.1045                 1.0323                 1.0837
 Frc consts  --      6.0263                 5.6644                 6.0211
 IR Inten    --     63.0530                56.9248                19.1723

                     85                     86                     87
                      A                      A                      A
 Frequencies --   3076.5226              3077.9656              3099.5926
 Red. masses --      1.1067                 1.0863                 1.1065
 Frc consts  --      6.1718                 6.0637                 6.2635
 IR Inten    --     54.3789                12.6959                19.5604

                     88                     89                     90
                      A                      A                      A
 Frequencies --   3100.4573              3114.0632              3122.4269
 Red. masses --      1.1048                 1.0893                 1.1064
 Frc consts  --      6.2572                 6.2236                 6.3554
 IR Inten    --     76.8556                25.6239                23.8346

                     91                     92                     93
                      A                      A                      A
 Frequencies --   3161.2286              3161.3649              3168.4031
 Red. masses --      1.0999                 1.1016                 1.0867
 Frc consts  --      6.4764                 6.4866                 6.4273
 IR Inten    --     16.3253                36.4158                 1.9483

                     94                     95                     96
                      A                      A                      A
 Frequencies --   3168.9906              3181.0445              3201.5768
 Red. masses --      1.1013                 1.1030                 1.0952
 Frc consts  --      6.5164                 6.5759                 6.6140
 IR Inten    --     21.3574                11.1116                 0.6689

 - Thermochemistry -
 -------------------
 Temperature   298.150 Kelvin.  Pressure   1.00000 Atm.
 Atom     1 has atomic number  6 and mass  12.00000

 Molecular mass:   219.12325 amu.
 Principal axes and moments of inertia in atomic units:
                           1         2         3
     Eigenvalues --  2492.110924234.440824639.84141
           X            0.99988  -0.01205   0.00947
           Y            0.01196   0.99988   0.00975
           Z           -0.00958  -0.00963   0.99991
 This molecule is an asymmetric top.
 Rotational symmetry number  1.
 Warning -- assumption of classical behavior for rotation
           may cause significant error
 Rotational temperatures (Kelvin)      0.03476     0.02045     0.01867
 Rotational constants (GHZ):           0.72418     0.42621     0.38897
 Zero-point vibrational energy     772443.9 (Joules/Mol)
                                  184.61853 (Kcal/Mol)
 Warning -- explicit consideration of  27 degrees of freedom as
           vibrations may cause significant error
 Vibrational temperatures:     42.04    82.62    96.96   102.30   127.17
          (Kelvin)            145.64   155.30   163.81   192.84   205.32
                              213.91   282.85   303.16   337.70   345.45
                              407.82   422.00   449.70   477.59   529.88
                              558.34   612.16   641.85   693.63   776.36
                              810.45   882.76  1151.47  1244.97  1265.88
                             1299.19  1359.74  1381.86  1411.39  1449.25
                             1470.53  1515.37  1574.15  1612.73  1619.79
                             1634.85  1648.86  1659.93  1682.96  1698.26
                             1701.93  1706.22  1711.73  1749.84  1756.43
                             1769.15  1780.23  1798.68  1839.30  1883.33
                             1907.06  1924.74  1947.08  1977.96  2000.12
                             2031.43  2054.48  2084.67  2149.49  2154.19
                             2158.27  2160.99  2171.28  2172.46  2172.72
                             2182.97  2191.48  2193.24  2196.76  2197.64
                             2238.26  2373.43  4315.35  4347.07  4363.12
                             4369.70  4378.31  4390.67  4418.31  4426.43
                             4428.51  4459.62  4460.87  4480.44  4492.48
                             4548.30  4548.50  4558.63  4559.47  4576.81
                             4606.35

 Zero-point correction=                           0.294208 (Hartree/Particle)
 Thermal correction to Energy=                    0.311906
 Thermal correction to Enthalpy=                  0.312851
 Thermal correction to Gibbs Free Energy=         0.247848
 Sum of electronic and zero-point Energies=           -768.030638
 Sum of electronic and thermal Energies=              -768.012940
 Sum of electronic and thermal Enthalpies=            -768.011996
 Sum of electronic and thermal Free Energies=         -768.076999

                     E (Thermal)             CV                S
                      KCal/Mol        Cal/Mol-Kelvin    Cal/Mol-Kelvin
 Total                  195.724             61.908            136.810
 Electronic               0.000              0.000              0.000
 Translational            0.889              2.981             42.056
 Rotational               0.889              2.981             32.260
 Vibrational            193.947             55.947             62.494
 Vibration     1          0.593              1.984              5.882
 Vibration     2          0.596              1.975              4.544
 Vibration     3          0.598              1.970              4.228
 Vibration     4          0.598              1.968              4.123
 Vibration     5          0.601              1.957              3.695
 Vibration     6          0.604              1.948              3.431
 Vibration     7          0.606              1.943              3.306
 Vibration     8          0.607              1.938              3.202
 Vibration     9          0.613              1.919              2.887
 Vibration    10          0.616              1.911              2.767
 Vibration    11          0.618              1.904              2.689
 Vibration    12          0.636              1.845              2.165
 Vibration    13          0.643              1.824              2.038
 Vibration    14          0.655              1.788              1.843
 Vibration    15          0.657              1.779              1.802
 Vibration    16          0.682              1.704              1.513
 Vibration    17          0.688              1.686              1.455
 Vibration    18          0.701              1.650              1.349
 Vibration    19          0.714              1.612              1.251
 Vibration    20          0.741              1.537              1.087
 Vibration    21          0.756              1.496              1.008
 Vibration    22          0.787              1.415              0.874
 Vibration    23          0.805              1.369              0.808
 Vibration    24          0.838              1.290              0.704
 Vibration    25          0.895              1.162              0.566
 Vibration    26          0.919              1.111              0.517
 Vibration    27          0.973              1.003              0.427

                           ! Non-Optimized Parameters !
 Normal termination of Gaussian 16 at Fri May 24 09:18:04 2019.
