 Gaussian 16, Revision A.03,
 Gaussian 16:  AS64L-G16RevA.03 25-Dec-2016

 ----------------------------------------------------------------------
 #p opt freq=noraman 6-31g(d) scrf=(solvent=tetrahydrofuran,pcm) pop=no
 ne b97d
 ----------------------------------------------------------------------

 -----
 title
 -----
 Symbolic Z-matrix:
 Charge =  0 Multiplicity = 1

 SCF Done:  E(RB97D) =  -2296.94363818     A.U. after   15 cycles
 SCF Done:  E(RB97D) =  -2296.94363819     A.U. after    6 cycles
 SCF Done:  E(RB97D) =  -2296.94363800     A.U. after    7 cycles
 SCF Done:  E(RB97D) =  -2296.94363812     A.U. after    6 cycles
 SCF Done:  E(RB97D) =  -2296.94363819     A.U. after    6 cycles
 Optimization completed.
    -- Stationary point found.
 Normal termination of Gaussian 16 at Mon Jun 10 05:49:59 2019.

 -------------------------------------------------------------------
 #P Geom=AllCheck Guess=TCheck SCRF=Check GenChk RB97D/6-31G(d) Freq
 -------------------------------------------------------------------

 Structure from the checkpoint file:  "/scratch/users/ekwan/clay_new-glu_gluC6-bisCF3-sm-b97d-631gd-pcm_thf/Gau-60126.chk"
 -----
 title
 -----
 Charge =  0 Multiplicity = 1

                         Standard orientation:
 ---------------------------------------------------------------------
 Center     Atomic      Atomic             Coordinates (Angstroms)
 Number     Number       Type             X           Y           Z
 ---------------------------------------------------------------------
      1          6           0       -3.335192    0.610148   -0.054302
      2          6           0       -3.208172   -0.803582    0.547209
      3          6           0       -1.740125   -1.304440    0.498030
      4          6           0       -0.862212    0.932677    0.463381
      5          6           0       -2.270600    1.546291    0.542811
      6          1           0       -1.611261   -2.241370    1.051508
      7          1           0       -3.459517   -0.742413    1.624935
      8          1           0       -3.178403    0.551714   -1.145690
      9          1           0       -0.574193    0.843023   -0.596536
     10          1           0       -2.512682    1.725354    1.602724
     11          8           0       -0.842360   -0.395852    1.061698
     12          8           0       -1.450060   -1.559299   -0.924807
     13          8           0       -4.109155   -1.666689   -0.124063
     14          8           0       -4.609239    1.178812    0.245672
     15          8           0       -2.234648    2.771425   -0.189630
     16          6           0        0.200015    1.792498    1.164122
     17          1           0        0.395173    2.656254    0.515919
     18          1           0        1.126691    1.199597    1.261200
     19          8           0       -0.185101    2.327635    2.426173
     20         16           0       -0.152369   -2.536560   -1.278959
     21          8           0       -0.248005   -2.735871   -2.730130
     22          8           0       -0.121073   -3.671089   -0.339190
     23          6           0        1.238186   -1.443392   -0.920631
     24          6           0        1.474023   -0.366334   -1.781280
     25          6           0        1.980170   -1.641525    0.247771
     26          6           0        2.488194    0.543859   -1.449640
     27          1           0        0.879012   -0.231993   -2.682790
     28          6           0        2.998840   -0.729031    0.551466
     29          1           0        1.759684   -2.477575    0.907231
     30          6           0        3.252167    0.366168   -0.288333
     31          1           0        4.032990    1.080015   -0.033563
     32          6           0       -4.263865   -2.940594    0.510623
     33          1           0       -3.356907   -3.562525    0.404549
     34          1           0       -4.497960   -2.823079    1.585728
     35          1           0       -5.101117   -3.439214    0.004390
     36          6           0       -5.584957    1.008377   -0.788365
     37          1           0       -6.479816    1.556301   -0.459785
     38          1           0       -5.224885    1.437279   -1.742764
     39          1           0       -5.831080   -0.054502   -0.940034
     40          6           0       -2.769387    3.882753    0.539114
     41          1           0       -2.664588    4.760961   -0.114161
     42          1           0       -3.834037    3.720982    0.777912
     43          1           0       -2.201806    4.045341    1.472847
     44          6           0       -0.202038    1.355025    3.477989
     45          1           0       -0.312969    1.915184    4.417508
     46          1           0        0.742490    0.780759    3.497170
     47          1           0       -1.041141    0.647607    3.368027
     48          6           0        2.666295    1.795274   -2.284957
     49          9           0        2.350587    1.586807   -3.588860
     50          9           0        3.938098    2.267607   -2.233562
     51          9           0        1.846686    2.787827   -1.824944
     52          6           0        3.749926   -0.837537    1.862198
     53          9           0        3.193067   -0.008134    2.797178
     54          9           0        5.050454   -0.467655    1.730338
     55          9           0        3.722633   -2.094798    2.370737
 ---------------------------------------------------------------------

 SCF Done:  E(RB97D) =  -2296.94363819     A.U. after    1 cycles

 Isotropic polarizability for W=    0.000000      290.69 Bohr**3.
 End of Minotr F.D. properties file   721 does not exist.

                      1                      2                      3
                      A                      A                      A
 Frequencies --     14.4141                18.1322                19.9668
 Red. masses --      9.3284                16.7762                 8.3409
 Frc consts  --      0.0011                 0.0032                 0.0020
 IR Inten    --      0.2097                 0.0861                 0.1651

                      4                      5                      6
                      A                      A                      A
 Frequencies --     27.3616                33.2631                44.7975
 Red. masses --      9.8396                 5.9200                 4.1986
 Frc consts  --      0.0043                 0.0039                 0.0050
 IR Inten    --      0.1554                 0.3592                 0.2488

                      7                      8                      9
                      A                      A                      A
 Frequencies --     48.1598                61.1631                65.2262
 Red. masses --      4.9733                 3.4481                 3.2498
 Frc consts  --      0.0068                 0.0076                 0.0081
 IR Inten    --      1.3303                 1.3410                 5.0480

                     10                     11                     12
                      A                      A                      A
 Frequencies --     67.6180                73.2802                82.9714
 Red. masses --      3.3049                 2.9010                 3.1293
 Frc consts  --      0.0089                 0.0092                 0.0127
 IR Inten    --      1.7691                 4.0909                 1.8948

                     13                     14                     15
                      A                      A                      A
 Frequencies --     99.2295               101.1693               106.4887
 Red. masses --      3.4668                12.1738                 9.3361
 Frc consts  --      0.0201                 0.0734                 0.0624
 IR Inten    --      1.4072                 3.3050                 3.0741

                     16                     17                     18
                      A                      A                      A
 Frequencies --    117.5798               135.1436               147.7646
 Red. masses --      9.8367                 2.5094                 7.0805
 Frc consts  --      0.0801                 0.0270                 0.0911
 IR Inten    --      0.7663                 3.5649                 0.9176

                     19                     20                     21
                      A                      A                      A
 Frequencies --    159.2186               173.3974               176.6945
 Red. masses --      2.4561                 2.3395                 3.0415
 Frc consts  --      0.0367                 0.0414                 0.0559
 IR Inten    --      0.9957                 0.7428                 1.4992

                     22                     23                     24
                      A                      A                      A
 Frequencies --    184.1827               194.9043               201.7020
 Red. masses --      2.5153                 1.5869                 3.4065
 Frc consts  --      0.0503                 0.0355                 0.0817
 IR Inten    --      0.6764                 3.7990                 8.0497

                     25                     26                     27
                      A                      A                      A
 Frequencies --    221.7080               239.0820               242.8061
 Red. masses --      1.7853                 4.8786                 2.1337
 Frc consts  --      0.0517                 0.1643                 0.0741
 IR Inten    --      0.7440                 1.9434                 1.2400

                     28                     29                     30
                      A                      A                      A
 Frequencies --    244.5051               252.2482               272.5693
 Red. masses --      4.4641                 3.2034                 3.3291
 Frc consts  --      0.1572                 0.1201                 0.1457
 IR Inten    --      0.9804                 6.9297                 8.7956

                     31                     32                     33
                      A                      A                      A
 Frequencies --    275.5929               285.8055               288.9507
 Red. masses --      7.4449                 5.6048                11.0835
 Frc consts  --      0.3332                 0.2697                 0.5452
 IR Inten    --      5.5066                13.0959                 2.2615

                     34                     35                     36
                      A                      A                      A
 Frequencies --    292.3106               303.2225               326.3108
 Red. masses --      4.9086                 5.4588                 4.4418
 Frc consts  --      0.2471                 0.2957                 0.2787
 IR Inten    --     10.7081                 0.6473                 1.9945

                     37                     38                     39
                      A                      A                      A
 Frequencies --    335.0897               345.8785               353.5654
 Red. masses --      7.6867                 6.4120                 4.2478
 Frc consts  --      0.5085                 0.4520                 0.3129
 IR Inten    --      2.5473                 9.6872                 6.5904

                     40                     41                     42
                      A                      A                      A
 Frequencies --    355.2687               396.0840               411.6784
 Red. masses --      8.4653                10.5345                 9.4535
 Frc consts  --      0.6295                 0.9737                 0.9440
 IR Inten    --     20.3964                12.5024                 7.4769

                     43                     44                     45
                      A                      A                      A
 Frequencies --    428.2576               439.7137               450.8390
 Red. masses --      2.4410                 5.8944                 9.2616
 Frc consts  --      0.2638                 0.6715                 1.1091
 IR Inten    --      9.2377                 5.5760                29.1991

                     46                     47                     48
                      A                      A                      A
 Frequencies --    464.1227               470.9270               479.7171
 Red. masses --      4.0760                 6.8472                11.8554
 Frc consts  --      0.5173                 0.8947                 1.6074
 IR Inten    --      5.8140                 8.0776                 0.7958

                     49                     50                     51
                      A                      A                      A
 Frequencies --    505.6744               512.9741               528.7384
 Red. masses --     10.9373                 6.3254                 4.1573
 Frc consts  --      1.6478                 0.9807                 0.6848
 IR Inten    --     44.3960                12.6314                49.5564

                     52                     53                     54
                      A                      A                      A
 Frequencies --    544.5607               554.6539               561.4765
 Red. masses --     11.7203                 8.5145                 4.0896
 Frc consts  --      2.0478                 1.5433                 0.7596
 IR Inten    --     23.1459               166.8426                23.0019

                     55                     56                     57
                      A                      A                      A
 Frequencies --    579.8012               589.3253               627.4839
 Red. masses --      6.3896                 8.2750                 5.7229
 Frc consts  --      1.2656                 1.6933                 1.3276
 IR Inten    --     27.0590                 2.6674                 6.9900

                     58                     59                     60
                      A                      A                      A
 Frequencies --    644.5243               647.8951               655.2206
 Red. masses --      8.1263                 7.9049                13.2046
 Frc consts  --      1.9889                 1.9550                 3.3400
 IR Inten    --    135.7424                13.3797                42.1164

                     61                     62                     63
                      A                      A                      A
 Frequencies --    685.4106               687.1060               705.3210
 Red. masses --      2.8507                12.7546                 5.6587
 Frc consts  --      0.7891                 3.5478                 1.6586
 IR Inten    --     19.4388                 1.5460               324.2612

                     64                     65                     66
                      A                      A                      A
 Frequencies --    733.9458               788.5353               800.0678
 Red. masses --      6.3013                 4.6111                 6.6163
 Frc consts  --      1.9999                 1.6892                 2.4953
 IR Inten    --    211.8246                16.7911                21.9813

                     67                     68                     69
                      A                      A                      A
 Frequencies --    821.8448               839.4497               878.1391
 Red. masses --     12.1081                 4.2270                 1.4818
 Frc consts  --      4.8184                 1.7550                 0.6733
 IR Inten    --     34.3205                41.8194                61.1310

                     70                     71                     72
                      A                      A                      A
 Frequencies --    887.3880               912.0483               919.1058
 Red. masses --      3.2868                 1.3828                 1.3602
 Frc consts  --      1.5249                 0.6777                 0.6770
 IR Inten    --     37.8844                 3.2824                 8.1443

                     73                     74                     75
                      A                      A                      A
 Frequencies --    925.7026               936.6070               961.4033
 Red. masses --      5.2835                 4.3783                 4.1610
 Frc consts  --      2.6676                 2.2629                 2.2660
 IR Inten    --      9.5453                36.1570                48.8849

                     76                     77                     78
                      A                      A                      A
 Frequencies --    975.4553               984.7651              1004.8507
 Red. masses --      4.6619                 6.3840                 3.7707
 Frc consts  --      2.6135                 3.6476                 2.2433
 IR Inten    --     19.2314                 1.2934               128.7203

                     79                     80                     81
                      A                      A                      A
 Frequencies --   1044.0033              1064.8946              1078.9630
 Red. masses --      3.3101                11.7632                 4.7059
 Frc consts  --      2.1257                 7.8594                 3.2278
 IR Inten    --     27.2029                91.0587               311.4750

                     82                     83                     84
                      A                      A                      A
 Frequencies --   1080.8919              1084.4813              1086.1887
 Red. masses --      5.2645                 4.0503                 6.5177
 Frc consts  --      3.6238                 2.8066                 4.5306
 IR Inten    --    274.4725                42.6328               290.6026

                     85                     86                     87
                      A                      A                      A
 Frequencies --   1094.9039              1096.9108              1101.3063
 Red. masses --      8.0057                 4.4804                 4.2469
 Frc consts  --      5.6546                 3.1762                 3.0349
 IR Inten    --     12.8507                84.2954               196.9190

                     88                     89                     90
                      A                      A                      A
 Frequencies --   1103.2809              1107.9269              1114.1827
 Red. masses --      8.8191                 2.9630                 3.4204
 Frc consts  --      6.3248                 2.1429                 2.5017
 IR Inten    --    628.5436                60.2795               413.8219

                     91                     92                     93
                      A                      A                      A
 Frequencies --   1117.7758              1129.8937              1137.3634
 Red. masses --      4.3330                 4.5786                 3.0410
 Frc consts  --      3.1897                 3.4440                 2.3178
 IR Inten    --     38.6218               159.9423                52.0582

                     94                     95                     96
                      A                      A                      A
 Frequencies --   1155.7973              1158.4785              1159.7966
 Red. masses --      6.1510                 1.2692                 1.2578
 Frc consts  --      4.8413                 1.0036                 0.9968
 IR Inten    --    195.7351                 1.5403                 0.3132

                     97                     98                     99
                      A                      A                      A
 Frequencies --   1164.3510              1164.5434              1167.5474
 Red. masses --      3.2582                 1.2884                 1.2764
 Frc consts  --      2.6026                 1.0295                 1.0252
 IR Inten    --    166.9621                 2.9315                 1.2970

                    100                    101                    102
                      A                      A                      A
 Frequencies --   1189.2451              1195.8689              1200.5978
 Red. masses --      1.3165                 1.3946                 1.4769
 Frc consts  --      1.0970                 1.1751                 1.2543
 IR Inten    --     17.0178                17.5669                 6.5145

                    103                    104                    105
                      A                      A                      A
 Frequencies --   1208.4840              1235.9515              1240.9699
 Red. masses --      1.5389                 1.6602                 3.1098
 Frc consts  --      1.3241                 1.4943                 2.8217
 IR Inten    --     10.9880                 9.1712               750.1467

                    106                    107                    108
                      A                      A                      A
 Frequencies --   1273.2601              1288.2195              1297.8919
 Red. masses --      1.4157                 5.1074                 1.6050
 Frc consts  --      1.3522                 4.9938                 1.5930
 IR Inten    --      1.3517               164.2426                52.8303

                    109                    110                    111
                      A                      A                      A
 Frequencies --   1300.1200              1314.6326              1319.9498
 Red. masses --      1.3625                 1.2470                 4.5825
 Frc consts  --      1.3569                 1.2698                 4.7040
 IR Inten    --      3.5165                28.3849               186.3955

                    112                    113                    114
                      A                      A                      A
 Frequencies --   1340.3653              1343.7218              1357.3170
 Red. masses --      1.1972                 1.1716                 1.3471
 Frc consts  --      1.2673                 1.2463                 1.4622
 IR Inten    --     19.1692                 8.9239                 1.9799

                    115                    116                    117
                      A                      A                      A
 Frequencies --   1365.5964              1369.8090              1381.9119
 Red. masses --      3.6897                 1.4182                 1.2699
 Frc consts  --      4.0540                 1.5678                 1.4288
 IR Inten    --      0.2931                10.7452                13.1071

                    118                    119                    120
                      A                      A                      A
 Frequencies --   1390.7746              1399.9390              1406.9595
 Red. masses --      1.3069                 1.2913                 1.2849
 Frc consts  --      1.4894                 1.4911                 1.4985
 IR Inten    --     16.6163                18.2293                16.4795

                    121                    122                    123
                      A                      A                      A
 Frequencies --   1445.0418              1456.8003              1457.5077
 Red. masses --      3.2413                 1.7407                 1.6197
 Frc consts  --      3.9877                 2.1766                 2.0273
 IR Inten    --      9.7315                 1.7342                 3.1718

                    124                    125                    126
                      A                      A                      A
 Frequencies --   1459.5409              1461.8126              1463.0361
 Red. masses --      1.1438                 1.1205                 1.1119
 Frc consts  --      1.4356                 1.4108                 1.4022
 IR Inten    --      0.6388                 3.1101                 5.4018

                    127                    128                    129
                      A                      A                      A
 Frequencies --   1466.1694              1469.9714              1471.2638
 Red. masses --      1.0587                 1.0627                 1.0557
 Frc consts  --      1.3409                 1.3530                 1.3463
 IR Inten    --      1.5677                 6.3849                 6.6284

                    130                    131                    132
                      A                      A                      A
 Frequencies --   1479.0107              1481.8751              1494.1103
 Red. masses --      1.1182                 1.1070                 1.0503
 Frc consts  --      1.4411                 1.4323                 1.3815
 IR Inten    --      1.1851                 4.8161                11.2570

                    133                    134                    135
                      A                      A                      A
 Frequencies --   1495.4230              1495.6363              1498.2214
 Red. masses --      1.0540                 1.0524                 1.0654
 Frc consts  --      1.3887                 1.3870                 1.4091
 IR Inten    --      8.4743                 5.2463                 7.7815

                    136                    137                    138
                      A                      A                      A
 Frequencies --   1597.9767              1621.9719              2917.6873
 Red. masses --      5.6335                 5.4804                 1.0507
 Frc consts  --      8.4756                 8.4947                 5.2702
 IR Inten    --      7.3099                11.6852                54.1926

                    139                    140                    141
                      A                      A                      A
 Frequencies --   2921.2885              2923.4402              2932.6219
 Red. masses --      1.0640                 1.0401                 1.0317
 Frc consts  --      5.3498                 5.2375                 5.2279
 IR Inten    --    104.1582                64.6161                67.4061

                    142                    143                    144
                      A                      A                      A
 Frequencies --   2933.5416              2969.1452              2971.0165
 Red. masses --      1.0310                 1.0840                 1.0651
 Frc consts  --      5.2277                 5.6305                 5.5392
 IR Inten    --     82.5389                24.1783                46.5526

                    145                    146                    147
                      A                      A                      A
 Frequencies --   2989.0227              2990.0985              3001.6778
 Red. masses --      1.1059                 1.0831                 1.0855
 Frc consts  --      5.8213                 5.7055                 5.7624
 IR Inten    --     71.5893                 8.9943                78.4094

                    148                    149                    150
                      A                      A                      A
 Frequencies --   3008.3442              3013.3253              3014.3282
 Red. masses --      1.1048                 1.1064                 1.0965
 Frc consts  --      5.8908                 5.9191                 5.8702
 IR Inten    --     63.3829                72.1372                49.9809

                    151                    152                    153
                      A                      A                      A
 Frequencies --   3059.4663              3061.1466              3062.8355
 Red. masses --      1.1048                 1.1049                 1.1066
 Frc consts  --      6.0930                 6.1004                 6.1161
 IR Inten    --     55.3193                49.7496                45.4592

                    154                    155                    156
                      A                      A                      A
 Frequencies --   3070.6312              3073.6081              3074.5886
 Red. masses --      1.0957                 1.0941                 1.0992
 Frc consts  --      6.0872                 6.0900                 6.1221
 IR Inten    --     42.8933                22.5675                13.9600

                    157                    158                    159
                      A                      A                      A
 Frequencies --   3176.6061              3180.2019              3190.7371
 Red. masses --      1.0924                 1.0920                 1.0921
 Frc consts  --      6.4944                 6.5069                 6.5507
 IR Inten    --      2.5021                 0.0732                 3.9601

 - Thermochemistry -
 -------------------
 Temperature   298.150 Kelvin.  Pressure   1.00000 Atm.
 Atom     1 has atomic number  6 and mass  12.00000

 Molecular mass:   512.09396 amu.
 Principal axes and moments of inertia in atomic units:
                           1         2         3
     Eigenvalues --  ******************************
           X            0.99995  -0.00789  -0.00564
           Y            0.00829   0.99715   0.07493
           Z            0.00503  -0.07498   0.99717
 This molecule is an asymmetric top.
 Rotational symmetry number  1.
 Warning -- assumption of classical behavior for rotation
           may cause significant error
 Rotational temperatures (Kelvin)      0.00721     0.00438     0.00405
 Rotational constants (GHZ):           0.15020     0.09123     0.08432
 Zero-point vibrational energy    1050413.1 (Joules/Mol)
                                  251.05475 (Kcal/Mol)
 Warning -- explicit consideration of  56 degrees of freedom as
           vibrations may cause significant error
 Vibrational temperatures:     20.74    26.09    28.73    39.37    47.86
          (Kelvin)             64.45    69.29    88.00    93.85    97.29
                              105.43   119.38   142.77   145.56   153.21
                              169.17   194.44   212.60   229.08   249.48
                              254.22   265.00   280.42   290.20   318.99
                              343.99   349.34   351.79   362.93   392.17
                              396.52   411.21   415.74   420.57   436.27
                              469.49   482.12   497.64   508.70   511.15
                              569.88   592.31   616.17   632.65   648.66
                              667.77   677.56   690.21   727.55   738.06
                              760.74   783.50   798.02   807.84   834.20
                              847.91   902.81   927.33   932.18   942.72
                              986.15   988.59  1014.80  1055.98  1134.53
                             1151.12  1182.45  1207.78  1263.45  1276.75
                             1312.23  1322.39  1331.88  1347.57  1383.24
                             1403.46  1416.86  1445.76  1502.09  1532.15
                             1552.39  1555.16  1560.33  1562.78  1575.32
                             1578.21  1584.53  1587.38  1594.06  1603.06
                             1608.23  1625.67  1636.41  1662.93  1666.79
                             1668.69  1675.24  1675.52  1679.84  1711.06
                             1720.59  1727.39  1738.74  1778.26  1785.48
                             1831.94  1853.46  1867.38  1870.58  1891.46
                             1899.11  1928.49  1933.32  1952.88  1964.79
                             1970.85  1988.26  2001.01  2014.20  2024.30
                             2079.09  2096.01  2097.03  2099.95  2103.22
                             2104.98  2109.49  2114.96  2116.82  2127.97
                             2132.09  2149.69  2151.58  2151.89  2155.61
                             2299.13  2333.66  4197.90  4203.08  4206.18
                             4219.39  4220.71  4271.94  4274.63  4300.54
                             4302.08  4318.74  4328.34  4335.50  4336.95
                             4401.89  4404.31  4406.74  4417.95  4422.24
                             4423.65  4570.43  4575.60  4590.76

 Zero-point correction=                           0.400081 (Hartree/Particle)
 Thermal correction to Energy=                    0.434061
 Thermal correction to Enthalpy=                  0.435005
 Thermal correction to Gibbs Free Energy=         0.330846
 Sum of electronic and zero-point Energies=          -2296.543557
 Sum of electronic and thermal Energies=             -2296.509577
 Sum of electronic and thermal Enthalpies=           -2296.508633
 Sum of electronic and thermal Free Energies=        -2296.612792

                     E (Thermal)             CV                S
                      KCal/Mol        Cal/Mol-Kelvin    Cal/Mol-Kelvin
 Total                  272.378            123.896            219.222
 Electronic               0.000              0.000              0.000
 Translational            0.889              2.981             44.587
 Rotational               0.889              2.981             36.873
 Vibrational            270.600            117.935            137.762
 Vibration     1          0.593              1.986              7.285
 Vibration     2          0.593              1.986              6.829
 Vibration     3          0.593              1.986              6.637
 Vibration     4          0.593              1.984              6.012
 Vibration     5          0.594              1.983              5.625
 Vibration     6          0.595              1.979              5.035
 Vibration     7          0.595              1.978              4.892
 Vibration     8          0.597              1.973              4.419
 Vibration     9          0.597              1.971              4.292
 Vibration    10          0.598              1.970              4.222
 Vibration    11          0.599              1.967              4.063
 Vibration    12          0.600              1.961              3.819
 Vibration    13          0.604              1.950              3.469
 Vibration    14          0.604              1.948              3.432
 Vibration    15          0.605              1.944              3.332
 Vibration    16          0.608              1.935              3.140
 Vibration    17          0.613              1.918              2.872
 Vibration    18          0.617              1.905              2.701
 Vibration    19          0.621              1.892              2.559
 Vibration    20          0.627              1.875              2.398
 Vibration    21          0.628              1.871              2.363
 Vibration    22          0.631              1.861              2.286
 Vibration    23          0.636              1.847              2.181
 Vibration    24          0.639              1.837              2.118
 Vibration    25          0.648              1.808              1.945
 Vibration    26          0.657              1.781              1.810
 Vibration    27          0.659              1.775              1.782
 Vibration    28          0.660              1.772              1.770
 Vibration    29          0.664              1.759              1.715
 Vibration    30          0.676              1.724              1.580
 Vibration    31          0.677              1.718              1.561
 Vibration    32          0.684              1.700              1.499
 Vibration    33          0.686              1.694              1.480
 Vibration    34          0.688              1.688              1.461
 Vibration    35          0.695              1.668              1.399
 Vibration    36          0.710              1.623              1.278
 Vibration    37          0.716              1.605              1.235
 Vibration    38          0.724              1.584              1.185
 Vibration    39          0.730              1.568              1.150
 Vibration    40          0.731              1.564              1.143
 Vibration    41          0.763              1.479              0.977
 Vibration    42          0.776              1.445              0.921
 Vibration    43          0.790              1.409              0.864
 Vibration    44          0.800              1.384              0.828
 Vibration    45          0.810              1.359              0.793
 Vibration    46          0.822              1.330              0.754
 Vibration    47          0.828              1.315              0.735
 Vibration    48          0.836              1.295              0.711
 Vibration    49          0.861              1.237              0.644
 Vibration    50          0.868              1.221              0.626
 Vibration    51          0.884              1.186              0.590
 Vibration    52          0.900              1.152              0.556
 Vibration    53          0.910              1.130              0.535
 Vibration    54          0.917              1.115              0.521
 Vibration    55          0.936              1.075              0.486
 Vibration    56          0.947              1.055              0.468

 Optimization completed.
    -- Stationary point found.
 Normal termination of Gaussian 16 at Mon Jun 10 06:09:58 2019.
