 Gaussian 16, Revision A.03,
 Gaussian 16:  AS64L-G16RevA.03 25-Dec-2016

 ----------------------------------------------------------------------
 #p opt freq=noraman pop=none 6-31g* scrf=(pcm,solvent=tetrahydrofuran)
  m11
 ----------------------------------------------------------------------

 -----
 title
 -----
 Symbolic Z-matrix:
 Charge =  0 Multiplicity = 1

 SCF Done:  E(RM11) =  -2297.30815453     A.U. after   14 cycles
 Optimization completed.
    -- Stationary point found.

 1\1\GINC-NODE043\FOpt\RM11\6-31G(d)\C18H22F6O8S1\EKWAN\05-Jun-2019\0\\
 #p opt freq=noraman pop=none 6-31g* scrf=(pcm,solvent=tetrahydrofuran)
  m11\\title\\0,1\C,3.379602,0.319115,0.629894\C,3.309103,-0.474009,-0.
 675112\C,1.849657,-0.767445,-1.058024\C,1.025846,1.08398,0.185502\C,2.
 44152,1.518925,0.560786\H,1.763212,-1.219597,-2.05307\H,3.725607,0.150
 253,-1.490019\H,3.063672,-0.33556,1.462982\H,0.628137,0.423274,0.97650
 9\H,2.811618,2.216768,-0.21047\O,1.045531,0.359963,-1.059239\O,1.38040
 3,-1.739059,-0.075883\O,4.059343,-1.64941,-0.514613\O,4.686681,0.80484

 Normal termination of Gaussian 16 at Wed Jun  5 18:01:39 2019.

 ------------------------------------------------------------------
 #P Geom=AllCheck Guess=TCheck SCRF=Check GenChk RM11/6-31G(d) Freq
 ------------------------------------------------------------------

 Structure from the checkpoint file:  "/scratch/users/ekwan/clay_new-glu_gluC6-bisCF3-sm-m11-631gd-pcm_thf/Gau-17933.chk"
 -----
 title
 -----
 Charge =  0 Multiplicity = 1

                         Standard orientation:
 ---------------------------------------------------------------------
 Center     Atomic      Atomic             Coordinates (Angstroms)
 Number     Number       Type             X           Y           Z
 ---------------------------------------------------------------------
      1          6           0        3.379602    0.319115    0.629894
      2          6           0        3.309103   -0.474009   -0.675112
      3          6           0        1.849657   -0.767445   -1.058024
      4          6           0        1.025846    1.083980    0.185502
      5          6           0        2.441520    1.518925    0.560786
      6          1           0        1.763212   -1.219597   -2.053070
      7          1           0        3.725607    0.150253   -1.490019
      8          1           0        3.063672   -0.335560    1.462982
      9          1           0        0.628137    0.423274    0.976509
     10          1           0        2.811618    2.216768   -0.210470
     11          8           0        1.045531    0.359963   -1.059239
     12          8           0        1.380403   -1.739059   -0.075883
     13          8           0        4.059343   -1.649410   -0.514613
     14          8           0        4.686681    0.804844    0.850408
     15          8           0        2.370077    2.160487    1.815823
     16          6           0        0.095231    2.283929    0.044486
     17          1           0       -0.138315    2.646464    1.053410
     18          1           0       -0.838825    1.960852   -0.448929
     19          8           0        0.667644    3.372290   -0.647616
     20         16           0        0.091161   -2.632147   -0.465657
     21          8           0        0.042186   -3.682424    0.534299
     22          8           0        0.159189   -2.931585   -1.890181
     23          6           0       -1.273802   -1.521919   -0.190576
     24          6           0       -1.773194   -1.388464    1.098163
     25          6           0       -1.781248   -0.804825   -1.265779
     26          6           0       -2.817641   -0.494252    1.305873
     27          1           0       -1.357694   -1.973499    1.919999
     28          6           0       -2.824544    0.080333   -1.025587
     29          1           0       -1.367567   -0.936876   -2.266185
     30          6           0       -3.346788    0.244237    0.253379
     31          1           0       -4.163779    0.945096    0.428815
     32          6           0        4.127895   -2.459736   -1.677345
     33          1           0        3.170491   -2.973883   -1.868589
     34          1           0        4.401245   -1.859845   -2.562067
     35          1           0        4.902305   -3.213731   -1.499336
     36          6           0        5.479865   -0.014702    1.697450
     37          1           0        6.449362    0.485362    1.808468
     38          1           0        5.010955   -0.114577    2.690828
     39          1           0        5.625850   -1.013241    1.262636
     40          6           0        3.056655    3.404386    1.854032
     41          1           0        2.935950    3.808116    2.866366
     42          1           0        4.126504    3.263844    1.638213
     43          1           0        2.618990    4.105191    1.124249
     44          6           0        0.790242    3.165364   -2.046599
     45          1           0        0.965950    4.145863   -2.505310
     46          1           0       -0.135994    2.728795   -2.456735
     47          1           0        1.629505    2.494253   -2.288698
     48          6           0       -3.420978   -0.361018    2.680647
     49          9           0       -2.519332   -0.643199    3.639753
     50          9           0       -4.460678   -1.202942    2.845621
     51          9           0       -3.881060    0.887458    2.891159
     52          6           0       -3.344296    0.933526   -2.152271
     53          9           0       -2.670277    2.105626   -2.224752
     54          9           0       -4.643937    1.236169   -1.982913
     55          9           0       -3.203931    0.320845   -3.341096
 ---------------------------------------------------------------------

 SCF Done:  E(RM11) =  -2297.30815453     A.U. after    1 cycles

 Isotropic polarizability for W=    0.000000      267.64 Bohr**3.
 End of Minotr F.D. properties file   721 does not exist.

                      1                      2                      3
                      A                      A                      A
 Frequencies --     11.8356                17.7062                23.8163
 Red. masses --      8.1496                 8.2736                16.5456
 Frc consts  --      0.0007                 0.0015                 0.0055
 IR Inten    --      0.3106                 0.0763                 0.0266

                      4                      5                      6
                      A                      A                      A
 Frequencies --     24.7302                38.1391                42.8498
 Red. masses --      9.8585                 4.1040                 3.8598
 Frc consts  --      0.0036                 0.0035                 0.0042
 IR Inten    --      0.1475                 1.1930                 0.5983

                      7                      8                      9
                      A                      A                      A
 Frequencies --     51.3232                60.7992                69.5950
 Red. masses --      6.2889                 4.2661                 3.5852
 Frc consts  --      0.0098                 0.0093                 0.0102
 IR Inten    --      0.5040                 1.6168                 0.0770

                     10                     11                     12
                      A                      A                      A
 Frequencies --     75.0912                83.9546                88.0226
 Red. masses --      3.2961                 2.7971                 3.7910
 Frc consts  --      0.0110                 0.0116                 0.0173
 IR Inten    --      3.8246                 8.8666                 2.8490

                     13                     14                     15
                      A                      A                      A
 Frequencies --    101.7151               102.6762               112.3579
 Red. masses --     10.8551                11.9345                 7.4489
 Frc consts  --      0.0662                 0.0741                 0.0554
 IR Inten    --      3.6474                 3.9937                 0.9579

                     16                     17                     18
                      A                      A                      A
 Frequencies --    120.6795               144.4996               155.0115
 Red. masses --      3.6167                 2.5277                 6.8403
 Frc consts  --      0.0310                 0.0311                 0.0968
 IR Inten    --      1.6514                 4.3282                 1.0168

                     19                     20                     21
                      A                      A                      A
 Frequencies --    156.6593               177.5998               182.4300
 Red. masses --      1.4271                 4.1598                 4.0697
 Frc consts  --      0.0206                 0.0773                 0.0798
 IR Inten    --      1.4545                 0.8423                 1.6271

                     22                     23                     24
                      A                      A                      A
 Frequencies --    190.4661               200.6557               209.6344
 Red. masses --      2.4274                 1.5707                 4.7901
 Frc consts  --      0.0519                 0.0373                 0.1240
 IR Inten    --      0.5270                 1.5499                17.7085

                     25                     26                     27
                      A                      A                      A
 Frequencies --    229.9016               236.9467               245.6617
 Red. masses --      1.6410                 7.1303                 2.1803
 Frc consts  --      0.0511                 0.2359                 0.0775
 IR Inten    --      1.4731                 0.2650                 3.9370

                     28                     29                     30
                      A                      A                      A
 Frequencies --    251.6788               258.4626               272.9313
 Red. masses --      1.9675                 5.1716                 3.2309
 Frc consts  --      0.0734                 0.2035                 0.1418
 IR Inten    --      0.7168                 3.3707                11.3081

                     31                     32                     33
                      A                      A                      A
 Frequencies --    283.1782               291.5105               294.3804
 Red. masses --     11.1508                 4.4416                 9.4242
 Frc consts  --      0.5268                 0.2224                 0.4812
 IR Inten    --      3.2208                14.6234                 2.5704

                     34                     35                     36
                      A                      A                      A
 Frequencies --    300.1901               314.5247               332.2175
 Red. masses --      6.3541                 5.3018                 3.8207
 Frc consts  --      0.3374                 0.3090                 0.2485
 IR Inten    --     17.2124                 0.2617                 1.9010

                     37                     38                     39
                      A                      A                      A
 Frequencies --    346.5696               355.3754               365.8864
 Red. masses --      7.5521                 5.4962                 5.2702
 Frc consts  --      0.5344                 0.4090                 0.4157
 IR Inten    --      2.4199                 3.5635                 9.1817

                     40                     41                     42
                      A                      A                      A
 Frequencies --    376.2880               414.8288               426.0199
 Red. masses --      8.1928                10.1649                 9.2726
 Frc consts  --      0.6835                 1.0306                 0.9915
 IR Inten    --     19.9913                16.4859                10.1244

                     43                     44                     45
                      A                      A                      A
 Frequencies --    431.7735               459.2366               470.9874
 Red. masses --      2.1937                 5.8246                 8.2145
 Frc consts  --      0.2410                 0.7238                 1.0736
 IR Inten    --     12.3130                 7.1738                18.2636

                     46                     47                     48
                      A                      A                      A
 Frequencies --    480.1165               497.1050               499.7115
 Red. masses --      3.9445                 7.8684                11.0145
 Frc consts  --      0.5357                 1.1456                 1.6205
 IR Inten    --     10.8515                 8.9546                 2.9104

                     49                     50                     51
                      A                      A                      A
 Frequencies --    525.6271               532.7301               546.4607
 Red. masses --      3.9802                 9.1690                 6.3426
 Frc consts  --      0.6479                 1.5332                 1.1159
 IR Inten    --     39.7519                45.6505                 3.5800

                     52                     53                     54
                      A                      A                      A
 Frequencies --    570.5455               572.8286               590.2591
 Red. masses --      6.6534                 5.7273                 9.9489
 Frc consts  --      1.2761                 1.1073                 2.0423
 IR Inten    --     34.6774                26.0968               249.2954

                     55                     56                     57
                      A                      A                      A
 Frequencies --    612.6132               615.6556               656.9680
 Red. masses --      6.6398                 7.8642                 5.6087
 Frc consts  --      1.4682                 1.7562                 1.4263
 IR Inten    --     37.0534                 9.0209                15.6384

                     58                     59                     60
                      A                      A                      A
 Frequencies --    679.9619               683.2277               695.6976
 Red. masses --     12.8321                 7.6486                 5.7065
 Frc consts  --      3.4956                 2.1036                 1.6273
 IR Inten    --     57.8861                 3.0379                21.1930

                     61                     62                     63
                      A                      A                      A
 Frequencies --    715.3117               722.3980               749.6743
 Red. masses --      2.3933                10.4790                 4.9947
 Frc consts  --      0.7215                 3.2220                 1.6539
 IR Inten    --     35.3414                 0.1674                35.6765

                     64                     65                     66
                      A                      A                      A
 Frequencies --    833.3449               851.6849               864.8155
 Red. masses --      5.9707                 4.1076                11.5102
 Frc consts  --      2.4430                 1.7555                 5.0720
 IR Inten    --    138.8796                19.3844               534.9192

                     67                     68                     69
                      A                      A                      A
 Frequencies --    868.4846               895.4451               930.9513
 Red. masses --     11.7817                 4.0213                 1.6403
 Frc consts  --      5.2358                 1.8998                 0.8376
 IR Inten    --     22.7949                85.2958                67.0080

                     70                     71                     72
                      A                      A                      A
 Frequencies --    945.9341               958.1951               971.6863
 Red. masses --      2.7986                 1.4043                 1.3825
 Frc consts  --      1.4754                 0.7597                 0.7691
 IR Inten    --     33.0017                 2.2454                12.8116

                     73                     74                     75
                      A                      A                      A
 Frequencies --    988.5150               995.3191              1011.2921
 Red. masses --      4.6722                 3.8168                 6.3567
 Frc consts  --      2.6899                 2.2278                 3.8303
 IR Inten    --     42.2843                17.7991                 3.0657

                     76                     77                     78
                      A                      A                      A
 Frequencies --   1032.1885              1041.2692              1061.0637
 Red. masses --      3.7843                 3.5458                 3.6906
 Frc consts  --      2.3755                 2.2651                 2.4481
 IR Inten    --     32.3626                11.4260               135.1012

                     79                     80                     81
                      A                      A                      A
 Frequencies --   1101.7952              1127.0429              1131.4467
 Red. masses --      2.7304                 2.6847                 2.7887
 Frc consts  --      1.9529                 2.0092                 2.1034
 IR Inten    --     13.7066                 9.6117                72.6851

                     82                     83                     84
                      A                      A                      A
 Frequencies --   1135.4353              1137.5179              1142.6053
 Red. masses --      2.1859                 2.3632                 2.1111
 Frc consts  --      1.6604                 1.8016                 1.6238
 IR Inten    --     55.0657               109.8595                 8.7983

                     85                     86                     87
                      A                      A                      A
 Frequencies --   1150.6519              1176.5249              1177.3537
 Red. masses --      2.4373                 2.5588                 3.0764
 Frc consts  --      1.9013                 2.0868                 2.5125
 IR Inten    --    222.6785                48.5153                29.4796

                     88                     89                     90
                      A                      A                      A
 Frequencies --   1181.4807              1182.1604              1185.0242
 Red. masses --      2.8455                 1.4167                 1.2778
 Frc consts  --      2.3403                 1.1665                 1.0572
 IR Inten    --    528.2029                34.0066                 5.8349

                     91                     92                     93
                      A                      A                      A
 Frequencies --   1186.7924              1190.1842              1192.0934
 Red. masses --      1.4851                 1.3899                 6.6836
 Frc consts  --      1.2324                 1.1600                 5.5961
 IR Inten    --     50.1331                45.9498               353.7652

                     94                     95                     96
                      A                      A                      A
 Frequencies --   1195.9248              1206.9889              1208.5204
 Red. masses --      1.7764                 2.6112                11.7654
 Frc consts  --      1.4969                 2.2413                10.1243
 IR Inten    --    162.6500                52.8850               365.7250

                     97                     98                     99
                      A                      A                      A
 Frequencies --   1220.2509              1224.3798              1227.8092
 Red. masses --      2.5132                 3.3539                 7.3391
 Frc consts  --      2.2048                 2.9623                 6.5186
 IR Inten    --    193.6776               153.7732               141.4319

                    100                    101                    102
                      A                      A                      A
 Frequencies --   1228.8200              1236.2766              1241.8597
 Red. masses --      1.7658                 7.3197                 1.9790
 Frc consts  --      1.5710                 6.5913                 1.7982
 IR Inten    --     51.7716               325.1883                35.3793

                    103                    104                    105
                      A                      A                      A
 Frequencies --   1247.2679              1270.3712              1286.2167
 Red. masses --      2.5041                 1.8967                 1.5096
 Frc consts  --      2.2952                 1.8035                 1.4714
 IR Inten    --     67.3930                18.2007                37.0735

                    106                    107                    108
                      A                      A                      A
 Frequencies --   1300.4886              1304.9388              1332.4869
 Red. masses --      1.4740                 3.5236                 1.2133
 Frc consts  --      1.4688                 3.5353                 1.2693
 IR Inten    --     11.8718               790.9846                15.3824

                    109                    110                    111
                      A                      A                      A
 Frequencies --   1347.8385              1358.2003              1365.6245
 Red. masses --      1.4785                 4.9171                 1.2895
 Frc consts  --      1.5825                 5.3443                 1.4169
 IR Inten    --      2.1209                94.6664                18.2381

                    112                    113                    114
                      A                      A                      A
 Frequencies --   1371.7704              1378.5980              1390.0505
 Red. masses --      1.3236                 4.1387                 1.4649
 Frc consts  --      1.4675                 4.6344                 1.6677
 IR Inten    --     21.2291               165.9157                22.5885

                    115                    116                    117
                      A                      A                      A
 Frequencies --   1398.5475              1407.4214              1409.5465
 Red. masses --      6.4831                 1.5323                 1.3538
 Frc consts  --      7.4712                 1.7883                 1.5848
 IR Inten    --    175.7581                19.4702                 2.4271

                    118                    119                    120
                      A                      A                      A
 Frequencies --   1429.2114              1429.6574              1442.3449
 Red. masses --      1.4256                 1.5237                 1.4944
 Frc consts  --      1.7157                 1.8349                 1.8317
 IR Inten    --     26.1051                16.5765                 8.2693

                    121                    122                    123
                      A                      A                      A
 Frequencies --   1474.1398              1483.8347              1485.9255
 Red. masses --      1.0844                 1.1996                 1.1830
 Frc consts  --      1.3885                 1.5562                 1.5390
 IR Inten    --      2.4088                 3.0957                 2.0642

                    124                    125                    126
                      A                      A                      A
 Frequencies --   1489.9922              1496.6760              1498.7336
 Red. masses --      1.1423                 1.0892                 1.0503
 Frc consts  --      1.4942                 1.4375                 1.3899
 IR Inten    --      7.6695                15.2983                 3.0250

                    127                    128                    129
                      A                      A                      A
 Frequencies --   1500.7790              1506.2098              1507.4002
 Red. masses --      1.0511                 4.2719                 1.1133
 Frc consts  --      1.3949                 5.7101                 1.4905
 IR Inten    --      1.3683                 1.1308                 1.1028

                    130                    131                    132
                      A                      A                      A
 Frequencies --   1509.7834              1519.4976              1520.3500
 Red. masses --      1.0831                 1.1406                 3.4739
 Frc consts  --      1.4546                 1.5517                 4.7310
 IR Inten    --      8.1515                 9.9942                 1.7383

                    133                    134                    135
                      A                      A                      A
 Frequencies --   1521.9385              1522.4135              1525.3162
 Red. masses --      1.0488                 1.0511                 1.0478
 Frc consts  --      1.4313                 1.4354                 1.4363
 IR Inten    --     11.4530                 6.4649                11.1654

                    136                    137                    138
                      A                      A                      A
 Frequencies --   1692.2034              1710.9702              3001.5450
 Red. masses --      7.1695                 6.8932                 1.0830
 Frc consts  --     12.0960                11.8892                 5.7489
 IR Inten    --     21.2508                27.6157                32.9985

                    139                    140                    141
                      A                      A                      A
 Frequencies --   3011.8508              3022.4872              3022.7968
 Red. masses --      1.0359                 1.0400                 1.0332
 Frc consts  --      5.5366                 5.5975                 5.5624
 IR Inten    --     54.9636                64.3786                32.5268

                    142                    143                    144
                      A                      A                      A
 Frequencies --   3026.8399              3028.9668              3039.3819
 Red. masses --      1.0353                 1.0808                 1.0765
 Frc consts  --      5.5883                 5.8422                 5.8590
 IR Inten    --     59.5714                21.2783                 8.8454

                    145                    146                    147
                      A                      A                      A
 Frequencies --   3045.7826              3054.1151              3078.5874
 Red. masses --      1.0732                 1.0847                 1.1069
 Frc consts  --      5.8657                 5.9609                 6.1808
 IR Inten    --     32.1605                62.7682                50.8531

                    148                    149                    150
                      A                      A                      A
 Frequencies --   3092.4042              3105.5699              3109.0861
 Red. masses --      1.1055                 1.1058                 1.0977
 Frc consts  --      6.2285                 6.2837                 6.2518
 IR Inten    --     45.3794                38.9069                40.2241

                    151                    152                    153
                      A                      A                      A
 Frequencies --   3134.1344              3143.4531              3145.9957
 Red. masses --      1.1003                 1.1041                 1.0891
 Frc consts  --      6.3680                 6.4280                 6.3508
 IR Inten    --     14.1008                41.3832                10.5139

                    154                    155                    156
                      A                      A                      A
 Frequencies --   3148.2926              3151.4065              3156.3905
 Red. masses --      1.1050                 1.1066                 1.1010
 Frc consts  --      6.4528                 6.4753                 6.4629
 IR Inten    --     32.2050                27.9824                24.5488

                    157                    158                    159
                      A                      A                      A
 Frequencies --   3217.1830              3219.7581              3222.4750
 Red. masses --      1.0937                 1.0934                 1.0936
 Frc consts  --      6.6695                 6.6786                 6.6909
 IR Inten    --     11.0243                 4.0225                11.0850

 - Thermochemistry -
 -------------------
 Temperature   298.150 Kelvin.  Pressure   1.00000 Atm.
 Atom     1 has atomic number  6 and mass  12.00000

 Molecular mass:   512.09396 amu.
 Principal axes and moments of inertia in atomic units:
                           1         2         3
     Eigenvalues --  ******************************
           X            0.99994   0.00609   0.00863
           Y           -0.00734   0.98819   0.15309
           Z           -0.00760  -0.15314   0.98817
 This molecule is an asymmetric top.
 Rotational symmetry number  1.
 Warning -- assumption of classical behavior for rotation
           may cause significant error
 Rotational temperatures (Kelvin)      0.00730     0.00413     0.00401
 Rotational constants (GHZ):           0.15206     0.08607     0.08360
 Zero-point vibrational energy    1086221.6 (Joules/Mol)
                                  259.61319 (Kcal/Mol)
 Warning -- explicit consideration of  56 degrees of freedom as
           vibrations may cause significant error
 Vibrational temperatures:     17.03    25.48    34.27    35.58    54.87
          (Kelvin)             61.65    73.84    87.48   100.13   108.04
                              120.79   126.64   146.35   147.73   161.66
                              173.63   207.90   223.03   225.40   255.53
                              262.48   274.04   288.70   301.62   330.78
                              340.91   353.45   362.11   371.87   392.69
                              407.43   419.42   423.55   431.91   452.53
                              477.99   498.64   511.31   526.43   541.39
                              596.85   612.95   621.23   660.74   677.65
                              690.78   715.22   718.97   756.26   766.48
                              786.24   820.89   824.17   849.25   881.41
                              885.79   945.23   978.31   983.01  1000.95
                             1029.17  1039.37  1078.61  1199.00  1225.38
                             1244.28  1249.56  1288.35  1339.43  1360.99
                             1378.63  1398.04  1422.25  1432.04  1455.02
                             1485.09  1498.15  1526.63  1585.24  1621.56
                             1627.90  1633.64  1636.63  1643.95  1655.53
                             1692.76  1693.95  1699.89  1700.87  1704.99
                             1707.53  1712.41  1715.16  1720.67  1736.59
                             1738.79  1755.67  1761.61  1766.54  1768.00
                             1778.73  1786.76  1794.54  1827.78  1850.58
                             1871.11  1877.52  1917.15  1939.24  1954.15
                             1964.83  1973.67  1983.50  1999.97  2012.20
                             2024.97  2028.02  2056.32  2056.96  2075.21
                             2120.96  2134.91  2137.92  2143.77  2153.38
                             2156.34  2159.29  2167.10  2168.81  2172.24
                             2186.22  2187.44  2189.73  2190.41  2194.59
                             2434.70  2461.70  4318.55  4333.38  4348.68
                             4349.13  4354.95  4358.01  4372.99  4382.20
                             4394.19  4429.40  4449.28  4468.22  4473.28
                             4509.32  4522.73  4526.39  4529.69  4534.17
                             4541.34  4628.81  4632.51  4636.42

 Zero-point correction=                           0.413720 (Hartree/Particle)
 Thermal correction to Energy=                    0.446725
 Thermal correction to Enthalpy=                  0.447669
 Thermal correction to Gibbs Free Energy=         0.345414
 Sum of electronic and zero-point Energies=          -2296.894435
 Sum of electronic and thermal Energies=             -2296.861430
 Sum of electronic and thermal Enthalpies=           -2296.860485
 Sum of electronic and thermal Free Energies=        -2296.962741

                     E (Thermal)             CV                S
                      KCal/Mol        Cal/Mol-Kelvin    Cal/Mol-Kelvin
 Total                  280.324            119.723            215.214
 Electronic               0.000              0.000              0.000
 Translational            0.889              2.981             44.587
 Rotational               0.889              2.981             36.928
 Vibrational            278.547            113.761            133.700
 Vibration     1          0.593              1.987              7.676
 Vibration     2          0.593              1.986              6.876
 Vibration     3          0.593              1.985              6.287
 Vibration     4          0.593              1.985              6.213
 Vibration     5          0.594              1.982              5.353
 Vibration     6          0.595              1.980              5.123
 Vibration     7          0.596              1.977              4.766
 Vibration     8          0.597              1.973              4.431
 Vibration     9          0.598              1.969              4.165
 Vibration    10          0.599              1.966              4.015
 Vibration    11          0.601              1.960              3.796
 Vibration    12          0.601              1.958              3.704
 Vibration    13          0.604              1.948              3.421
 Vibration    14          0.605              1.947              3.403
 Vibration    15          0.607              1.939              3.228
 Vibration    16          0.609              1.932              3.089
 Vibration    17          0.616              1.909              2.743
 Vibration    18          0.620              1.897              2.610
 Vibration    19          0.620              1.895              2.590
 Vibration    20          0.628              1.870              2.353
 Vibration    21          0.630              1.864              2.303
 Vibration    22          0.634              1.853              2.223
 Vibration    23          0.638              1.839              2.127
 Vibration    24          0.642              1.826              2.047
 Vibration    25          0.652              1.795              1.880
 Vibration    26          0.656              1.784              1.826
 Vibration    27          0.660              1.770              1.762
 Vibration    28          0.664              1.760              1.719
 Vibration    29          0.667              1.748              1.672
 Vibration    30          0.676              1.723              1.578
 Vibration    31          0.682              1.705              1.514
 Vibration    32          0.687              1.690              1.465
 Vibration    33          0.689              1.684              1.449
 Vibration    34          0.693              1.673              1.416
 Vibration    35          0.702              1.646              1.338
 Vibration    36          0.714              1.611              1.249
 Vibration    37          0.725              1.582              1.182
 Vibration    38          0.731              1.564              1.142
 Vibration    39          0.739              1.542              1.097
 Vibration    40          0.747              1.521              1.054
 Vibration    41          0.778              1.438              0.910
 Vibration    42          0.788              1.414              0.872
 Vibration    43          0.793              1.401              0.853
 Vibration    44          0.817              1.340              0.768
 Vibration    45          0.828              1.314              0.735
 Vibration    46          0.836              1.294              0.710
 Vibration    47          0.853              1.256              0.665
 Vibration    48          0.855              1.251              0.659
 Vibration    49          0.881              1.193              0.597
 Vibration    50          0.888              1.178              0.581
 Vibration    51          0.902              1.147              0.552
 Vibration    52          0.927              1.095              0.503
 Vibration    53          0.929              1.090              0.499
 Vibration    54          0.948              1.053              0.467
 Vibration    55          0.972              1.005              0.428
 Vibration    56          0.975              0.999              0.424

                           ! Non-Optimized Parameters !

 1\1\GINC-NODE043\Freq\RM11\6-31G(d)\C18H22F6O8S1\EKWAN\05-Jun-2019\0\\
 #P Geom=AllCheck Guess=TCheck SCRF=Check GenChk RM11/6-31G(d) Freq\\ti
 tle\\0,1\C,3.379602,0.319115,0.629894\C,3.309103,-0.474009,-0.675112\C
 ,1.849657,-0.767445,-1.058024\C,1.025846,1.08398,0.185502\C,2.44152,1.
 518925,0.560786\H,1.763212,-1.219597,-2.05307\H,3.725607,0.150253,-1.4
 90019\H,3.063672,-0.33556,1.462982\H,0.628137,0.423274,0.976509\H,2.81
 1618,2.216768,-0.21047\O,1.045531,0.359963,-1.059239\O,1.380403,-1.739
 059,-0.075883\O,4.059343,-1.64941,-0.514613\O,4.686681,0.804844,0.8504

 Normal termination of Gaussian 16 at Wed Jun  5 20:13:20 2019.
