 Gaussian 16, Revision A.03,
 Gaussian 16:  AS64L-G16RevA.03 25-Dec-2016

 ----------------------------------------------------------------------
 #p opt freq=noraman pop=none 6-31g* scrf=(pcm,solvent=tetrahydrofuran)
  bhandh
 ----------------------------------------------------------------------

 -----
 title
 -----
 Symbolic Z-matrix:
 Charge =  0 Multiplicity = 1

 SCF Done:  E(RBHandH) =  -2285.29397618     A.U. after   13 cycles
 Optimization completed.
    -- Stationary point found.
 Normal termination of Gaussian 16 at Wed Jun  5 16:42:19 2019.

 ---------------------------------------------------------------------
 #P Geom=AllCheck Guess=TCheck SCRF=Check GenChk RBHandH/6-31G(d) Freq
 ---------------------------------------------------------------------

 Structure from the checkpoint file:  "/scratch/users/ekwan/clay_new-glu_gluC6-bisCF3-sm-bhandh-631gd-pcm_thf/Gau-3422.chk"
 -----
 title
 -----
 Charge =  0 Multiplicity = 1

                         Standard orientation:
 ---------------------------------------------------------------------
 Center     Atomic      Atomic             Coordinates (Angstroms)
 Number     Number       Type             X           Y           Z
 ---------------------------------------------------------------------
      1          6           0        3.359439    0.075802    0.738574
      2          6           0        3.273739   -0.394774   -0.690384
      3          6           0        1.831630   -0.521096   -1.131934
      4          6           0        1.078504    1.024231    0.460035
      5          6           0        2.483595    1.280831    0.938625
      6          1           0        1.749463   -0.726786   -2.197339
      7          1           0        3.726676    0.375186   -1.332308
      8          1           0        3.004451   -0.726990    1.398278
      9          1           0        0.623321    0.240926    1.078628
     10          1           0        2.891533    2.114892    0.355500
     11          8           0        1.094704    0.600636   -0.887291
     12          8           0        1.307154   -1.639195   -0.422419
     13          8           0        3.956961   -1.587530   -0.805339
     14          8           0        4.656068    0.435795    1.071931
     15          8           0        2.417399    1.614602    2.282050
     16          6           0        0.233042    2.260507    0.579310
     17          1           0        0.046370    2.421868    1.640431
     18          1           0       -0.726841    2.095108    0.076094
     19          8           0        0.844150    3.409783    0.103502
     20         16           0        0.050295   -2.389422   -1.020755
     21          8           0       -0.021144   -3.621397   -0.303763
     22          8           0        0.156788   -2.354930   -2.449987
     23          6           0       -1.294459   -1.385168   -0.542984
     24          6           0       -1.900213   -1.618065    0.671429
     25          6           0       -1.698766   -0.368275   -1.379679
     26          6           0       -2.939766   -0.798041    1.053357
     27          1           0       -1.567353   -2.431780    1.302890
     28          6           0       -2.731045    0.444018   -0.968875
     29          1           0       -1.213785   -0.215376   -2.334455
     30          6           0       -3.354957    0.236383    0.243380
     31          1           0       -4.167103    0.880328    0.555347
     32          6           0        4.067931   -2.063776   -2.108408
     33          1           0        3.113994   -2.445419   -2.487155
     34          1           0        4.430615   -1.282841   -2.785446
     35          1           0        4.784424   -2.881708   -2.095340
     36          6           0        5.417350   -0.588272    1.631939
     37          1           0        6.391999   -0.168890    1.874804
     38          1           0        4.954121   -0.959312    2.552466
     39          1           0        5.539824   -1.420265    0.937256
     40          6           0        3.174377    2.734549    2.620244
     41          1           0        3.047649    2.902445    3.688341
     42          1           0        4.231967    2.570750    2.402496
     43          1           0        2.822974    3.616363    2.074797
     44          6           0        0.854450    3.523410   -1.284814
     45          1           0        1.152044    4.542530   -1.525529
     46          1           0       -0.142296    3.334876   -1.697521
     47          1           0        1.555095    2.825077   -1.748307
     48          6           0       -3.650069   -1.060039    2.332282
     49          9           0       -2.854266   -1.631733    3.212914
     50          9           0       -4.681763   -1.863416    2.157084
     51          9           0       -4.111199    0.056452    2.859472
     52          6           0       -3.134270    1.596039   -1.815158
     53          9           0       -2.454924    2.688453   -1.493491
     54          9           0       -4.410509    1.881384   -1.667530
     55          9           0       -2.906624    1.361981   -3.089888
 ---------------------------------------------------------------------

 SCF Done:  E(RBHandH) =  -2285.29397618     A.U. after    1 cycles

 Isotropic polarizability for W=    0.000000      255.54 Bohr**3.
 End of Minotr F.D. properties file   721 does not exist.

                      1                      2                      3
                      A                      A                      A
 Frequencies --     13.1839                17.9584                21.3929
 Red. masses --      9.6124                17.5414                 6.4745
 Frc consts  --      0.0010                 0.0033                 0.0017
 IR Inten    --      0.1023                 0.0295                 0.4285

                      4                      5                      6
                      A                      A                      A
 Frequencies --     26.6607                38.5367                46.6681
 Red. masses --     12.4895                 4.3882                 5.0653
 Frc consts  --      0.0052                 0.0038                 0.0065
 IR Inten    --      0.0273                 0.1751                 1.5595

                      7                      8                      9
                      A                      A                      A
 Frequencies --     54.4846                61.2236                68.0412
 Red. masses --      4.8028                 3.9311                 3.7778
 Frc consts  --      0.0084                 0.0087                 0.0103
 IR Inten    --      0.9365                 1.7482                 6.5383

                     10                     11                     12
                      A                      A                      A
 Frequencies --     76.9910                84.4352                94.3034
 Red. masses --      4.0152                 3.6126                 2.4009
 Frc consts  --      0.0140                 0.0152                 0.0126
 IR Inten    --      0.0177                 4.7038                 5.2936

                     13                     14                     15
                      A                      A                      A
 Frequencies --     97.9340               104.6134               109.4150
 Red. masses --      4.7515                12.3122                 5.6351
 Frc consts  --      0.0269                 0.0794                 0.0397
 IR Inten    --      2.2117                 3.6263                 2.9217

                     16                     17                     18
                      A                      A                      A
 Frequencies --    117.8071               134.7306               158.6452
 Red. masses --      5.9638                 2.4282                 7.6961
 Frc consts  --      0.0488                 0.0260                 0.1141
 IR Inten    --      1.6200                 3.2022                 0.5039

                     19                     20                     21
                      A                      A                      A
 Frequencies --    170.0130               180.5794               183.6027
 Red. masses --      1.5097                 4.3485                 2.9916
 Frc consts  --      0.0257                 0.0835                 0.0594
 IR Inten    --      0.9170                 0.9373                 1.6601

                     22                     23                     24
                      A                      A                      A
 Frequencies --    194.3501               204.1710               215.7580
 Red. masses --      2.3093                 1.4961                 3.4533
 Frc consts  --      0.0514                 0.0367                 0.0947
 IR Inten    --      0.4635                 2.6801                13.7178

                     25                     26                     27
                      A                      A                      A
 Frequencies --    227.4393               242.4227               247.9446
 Red. masses --      1.6545                11.4524                 1.6584
 Frc consts  --      0.0504                 0.3965                 0.0601
 IR Inten    --      2.6854                 0.0763                 5.4404

                     28                     29                     30
                      A                      A                      A
 Frequencies --    256.1010               269.5021               275.6000
 Red. masses --      2.8179                 7.1435                 3.3864
 Frc consts  --      0.1089                 0.3057                 0.1515
 IR Inten    --      2.9483                 5.0894                11.3919

                     31                     32                     33
                      A                      A                      A
 Frequencies --    295.5662               300.7909               306.9778
 Red. masses --     11.0302                 4.3229                11.7558
 Frc consts  --      0.5677                 0.2304                 0.6527
 IR Inten    --      2.6926                13.3205                 3.3332

                     34                     35                     36
                      A                      A                      A
 Frequencies --    311.6254               328.4764               343.9484
 Red. masses --      6.9558                 5.2324                 3.7159
 Frc consts  --      0.3980                 0.3326                 0.2590
 IR Inten    --     14.6291                 0.2112                 3.6696

                     37                     38                     39
                      A                      A                      A
 Frequencies --    361.5354               369.3092               380.1439
 Red. masses --      6.8727                 5.8024                 5.4361
 Frc consts  --      0.5293                 0.4663                 0.4628
 IR Inten    --      2.3013                 2.5992                10.3213

                     40                     41                     42
                      A                      A                      A
 Frequencies --    396.2527               434.3802               444.0694
 Red. masses --      8.7930                 9.7359                 8.3784
 Frc consts  --      0.8135                 1.0823                 0.9735
 IR Inten    --     14.1499                17.3634                 7.7546

                     43                     44                     45
                      A                      A                      A
 Frequencies --    451.9375               479.2943               490.7120
 Red. masses --      2.0936                 5.7594                 8.2652
 Frc consts  --      0.2519                 0.7795                 1.1726
 IR Inten    --     12.5036                 8.3179                15.6409

                     46                     47                     48
                      A                      A                      A
 Frequencies --    499.6121               523.2605               525.4229
 Red. masses --      3.9840                 7.0039                10.5700
 Frc consts  --      0.5859                 1.1299                 1.7193
 IR Inten    --      9.0733                13.4865                 4.7425

                     49                     50                     51
                      A                      A                      A
 Frequencies --    548.7161               559.9365               571.8946
 Red. masses --      4.0543                 9.8787                 6.1339
 Frc consts  --      0.7192                 1.8249                 1.1820
 IR Inten    --     26.4910                57.3555                 4.1766

                     52                     53                     54
                      A                      A                      A
 Frequencies --    596.1608               602.7150               618.9246
 Red. masses --      3.8372                14.4983                10.4418
 Frc consts  --      0.8035                 3.1031                 2.3567
 IR Inten    --     50.2084                 1.1406               274.9613

                     55                     56                     57
                      A                      A                      A
 Frequencies --    640.4296               647.5607               683.2183
 Red. masses --      6.6229                 7.9877                 5.3874
 Frc consts  --      1.6004                 1.9735                 1.4817
 IR Inten    --     44.7740                 4.0120                18.7957

                     58                     59                     60
                      A                      A                      A
 Frequencies --    712.7151               714.5679               733.2141
 Red. masses --      7.7160                12.1600                 5.1304
 Frc consts  --      2.3093                 3.6582                 1.6250
 IR Inten    --      4.0320                66.0649                 9.6181

                     61                     62                     63
                      A                      A                      A
 Frequencies --    738.4536               762.9896               787.5418
 Red. masses --      2.3563                 9.7717                 5.4533
 Frc consts  --      0.7571                 3.3516                 1.9928
 IR Inten    --     43.2179                 2.1255                28.5108

                     64                     65                     66
                      A                      A                      A
 Frequencies --    884.9055               904.1001               921.7811
 Red. masses --      4.0044                 4.9977                11.5908
 Frc consts  --      1.8475                 2.4069                 5.8025
 IR Inten    --     47.6402                 6.4627                14.7805

                     67                     68                     69
                      A                      A                      A
 Frequencies --    932.1413               960.3169               978.3905
 Red. masses --      4.8402                 1.6856                 5.0627
 Frc consts  --      2.4779                 0.9158                 2.8553
 IR Inten    --    268.2173                 4.1568               430.2497

                     70                     71                     72
                      A                      A                      A
 Frequencies --    989.6624               999.2209              1002.0224
 Red. masses --      1.4363                 2.3963                 1.3913
 Frc consts  --      0.8288                 1.4097                 0.8230
 IR Inten    --      0.1842                14.2072                 8.1809

                     73                     74                     75
                      A                      A                      A
 Frequencies --   1052.8440              1055.7665              1058.9055
 Red. masses --      6.2313                 3.9481                 3.8106
 Frc consts  --      4.0697                 2.5928                 2.5174
 IR Inten    --     15.3913                77.6594                 8.4730

                     76                     77                     78
                      A                      A                      A
 Frequencies --   1101.3890              1107.2530              1126.1033
 Red. masses --      3.5015                 2.9533                 3.9714
 Frc consts  --      2.5026                 2.1333                 2.9673
 IR Inten    --     42.4094                28.0597               138.5111

                     79                     80                     81
                      A                      A                      A
 Frequencies --   1160.4956              1172.4707              1177.6328
 Red. masses --      2.3809                 1.5383                 1.5454
 Frc consts  --      1.8892                 1.2460                 1.2627
 IR Inten    --     13.9894                16.7416                 7.0102

                     82                     83                     84
                      A                      A                      A
 Frequencies --   1185.9371              1197.4225              1201.5770
 Red. masses --      2.3608                 1.8341                 5.3381
 Frc consts  --      1.9563                 1.5494                 4.5409
 IR Inten    --     47.4937                44.2023                92.1028

                     85                     86                     87
                      A                      A                      A
 Frequencies --   1208.3922              1222.7185              1223.2056
 Red. masses --      2.0244                 1.3045                 1.2846
 Frc consts  --      1.7417                 1.1491                 1.1324
 IR Inten    --    115.5135                 7.5066                 1.7825

                     88                     89                     90
                      A                      A                      A
 Frequencies --   1225.7272              1231.0034              1238.2227
 Red. masses --      1.3446                 1.2975                 1.4019
 Frc consts  --      1.1902                 1.1585                 1.2664
 IR Inten    --     12.8329                 3.4639                13.9067

                     91                     92                     93
                      A                      A                      A
 Frequencies --   1242.9532              1246.7728              1253.7289
 Red. masses --      1.7850                 1.7292                 7.4614
 Frc consts  --      1.6248                 1.5837                 6.9100
 IR Inten    --     33.2689                31.8204               469.9924

                     94                     95                     96
                      A                      A                      A
 Frequencies --   1269.8930              1287.2845              1293.6344
 Red. masses --      1.7931                 2.7987                 5.3827
 Frc consts  --      1.7037                 2.7324                 5.3073
 IR Inten    --     42.3189               233.4390               266.6579

                     97                     98                     99
                      A                      A                      A
 Frequencies --   1296.3022              1304.7433              1311.1380
 Red. masses --      8.0733                 3.4920                 3.1589
 Frc consts  --      7.9931                 3.5025                 3.1995
 IR Inten    --    476.8634               145.6288                94.8963

                    100                    101                    102
                      A                      A                      A
 Frequencies --   1317.1283              1318.0760              1320.7018
 Red. masses --     11.9913                 1.6439                 3.1159
 Frc consts  --     12.2567                 1.6827                 3.2022
 IR Inten    --    351.6902                38.1566                92.7143

                    103                    104                    105
                      A                      A                      A
 Frequencies --   1327.8351              1340.1649              1345.9537
 Red. masses --      2.2830                 5.4295                 4.9850
 Frc consts  --      2.3717                 5.7454                 5.3208
 IR Inten    --     54.7651               269.8941               123.8652

                    106                    107                    108
                      A                      A                      A
 Frequencies --   1349.4522              1382.6821              1383.7808
 Red. masses --      1.6376                 3.4037                 1.3908
 Frc consts  --      1.7570                 3.8340                 1.5690
 IR Inten    --     32.5606               888.5679                28.2626

                    109                    110                    111
                      A                      A                      A
 Frequencies --   1398.4406              1413.6180              1421.0165
 Red. masses --      1.4330                 1.2914                 1.4855
 Frc consts  --      1.6511                 1.5205                 1.7674
 IR Inten    --      6.4194                27.6077                 6.0390

                    112                    113                    114
                      A                      A                      A
 Frequencies --   1436.3705              1441.3716              1455.0114
 Red. masses --      1.7963                 3.3415                 1.8254
 Frc consts  --      2.1835                 4.0902                 2.2769
 IR Inten    --     90.3951                34.3943                50.9915

                    115                    116                    117
                      A                      A                      A
 Frequencies --   1461.6319              1469.9073              1479.9883
 Red. masses --      1.5704                 3.6506                 5.9167
 Frc consts  --      1.9766                 4.6472                 7.6357
 IR Inten    --      6.9027               172.1575               191.3075

                    118                    119                    120
                      A                      A                      A
 Frequencies --   1482.9491              1486.2261              1502.1567
 Red. masses --      1.4498                 1.7867                 1.6524
 Frc consts  --      1.8786                 2.3253                 2.1968
 IR Inten    --     27.0981                34.0614                 6.1251

                    121                    122                    123
                      A                      A                      A
 Frequencies --   1510.4923              1524.5611              1526.2802
 Red. masses --      1.0851                 1.1308                 1.2037
 Frc consts  --      1.4586                 1.5486                 1.6521
 IR Inten    --      4.7321                15.2421                 5.8758

                    124                    125                    126
                      A                      A                      A
 Frequencies --   1528.8359              1530.6595              1533.6844
 Red. masses --      1.1962                 1.0711                 1.0798
 Frc consts  --      1.6473                 1.4785                 1.4965
 IR Inten    --      7.7173                 6.9797                12.9005

                    127                    128                    129
                      A                      A                      A
 Frequencies --   1535.0594              1542.4988              1548.2379
 Red. masses --      1.1037                 1.1332                 1.1280
 Frc consts  --      1.5323                 1.5886                 1.5931
 IR Inten    --      7.8976                 3.6998                 3.4539

                    130                    131                    132
                      A                      A                      A
 Frequencies --   1558.2068              1558.4365              1562.0594
 Red. masses --      1.0501                 1.0534                 1.0730
 Frc consts  --      1.5022                 1.5074                 1.5425
 IR Inten    --     14.4833                 9.1478                 8.9556

                    133                    134                    135
                      A                      A                      A
 Frequencies --   1562.2230              1570.8790              1580.2411
 Red. masses --      1.0533                 5.3592                 5.4533
 Frc consts  --      1.5146                 7.7918                 8.0233
 IR Inten    --     11.1187                 0.1463                 1.9246

                    136                    137                    138
                      A                      A                      A
 Frequencies --   1759.8896              1778.6135              3075.6901
 Red. masses --      7.3522                 7.0361                 1.0832
 Frc consts  --     13.4165                13.1144                 6.0374
 IR Inten    --     39.4871                42.5947                23.2926

                    139                    140                    141
                      A                      A                      A
 Frequencies --   3092.7067              3098.0178              3102.1974
 Red. masses --      1.0365                 1.0786                 1.0393
 Frc consts  --      5.8414                 6.0993                 5.8927
 IR Inten    --     49.0327                23.2528                52.3488

                    142                    143                    144
                      A                      A                      A
 Frequencies --   3103.2591              3106.9978              3110.5821
 Red. masses --      1.0447                 1.0397                 1.0754
 Frc consts  --      5.9275                 5.9135                 6.1305
 IR Inten    --     46.7905                36.9228                10.7430

                    145                    146                    147
                      A                      A                      A
 Frequencies --   3123.8344              3130.8273              3158.5962
 Red. masses --      1.0814                 1.0699                 1.1064
 Frc consts  --      6.2176                 6.1791                 6.5034
 IR Inten    --     36.0469                50.6824                44.4133

                    148                    149                    150
                      A                      A                      A
 Frequencies --   3180.6407              3183.6583              3190.3575
 Red. masses --      1.1039                 1.1033                 1.0958
 Frc consts  --      6.5797                 6.5884                 6.5714
 IR Inten    --     32.5459                33.7700                36.8276

                    151                    152                    153
                      A                      A                      A
 Frequencies --   3213.9355              3223.7718              3227.7613
 Red. masses --      1.0998                 1.0889                 1.1041
 Frc consts  --      6.6930                 6.6678                 6.7775
 IR Inten    --     11.5920                 8.8881                33.7086

                    154                    155                    156
                      A                      A                      A
 Frequencies --   3230.5115              3234.5522              3239.6276
 Red. masses --      1.1042                 1.1061                 1.1005
 Frc consts  --      6.7897                 6.8181                 6.8049
 IR Inten    --     27.9191                23.1660                20.0556

                    157                    158                    159
                      A                      A                      A
 Frequencies --   3306.6389              3307.4803              3314.4486
 Red. masses --      1.0938                 1.0937                 1.0939
 Frc consts  --      7.0460                 7.0492                 7.0805
 IR Inten    --      4.5481                15.9185                12.8088

 - Thermochemistry -
 -------------------
 Temperature   298.150 Kelvin.  Pressure   1.00000 Atm.
 Atom     1 has atomic number  6 and mass  12.00000

 Molecular mass:   512.09396 amu.
 Principal axes and moments of inertia in atomic units:
                           1         2         3
     Eigenvalues --  ******************************
           X            0.99994   0.00196   0.01053
           Y           -0.00330   0.99179   0.12787
           Z           -0.01019  -0.12790   0.99173
 This molecule is an asymmetric top.
 Rotational symmetry number  1.
 Warning -- assumption of classical behavior for rotation
           may cause significant error
 Rotational temperatures (Kelvin)      0.00753     0.00422     0.00399
 Rotational constants (GHZ):           0.15688     0.08796     0.08317
 Zero-point vibrational energy    1126788.5 (Joules/Mol)
                                  269.30893 (Kcal/Mol)
 Warning -- explicit consideration of  54 degrees of freedom as
           vibrations may cause significant error
 Vibrational temperatures:     18.97    25.84    30.78    38.36    55.45
          (Kelvin)             67.14    78.39    88.09    97.90   110.77
                              121.48   135.68   140.91   150.52   157.42
                              169.50   193.85   228.26   244.61   259.81
                              264.16   279.63   293.76   310.43   327.23
                              348.79   356.74   368.47   387.75   396.53
                              425.25   432.77   441.67   448.36   472.60
                              494.87   520.17   531.35   546.94   570.12
                              624.98   638.92   650.24   689.60   706.03
                              718.83   752.86   755.97   789.48   805.62
                              822.83   857.74   867.17   890.49   921.44
                              931.70   983.00  1025.44  1028.10  1054.93
                             1062.47  1097.77  1133.10  1273.18  1300.80
                             1326.24  1341.14  1381.68  1407.69  1423.90
                             1437.66  1441.69  1514.81  1519.01  1523.53
                             1584.65  1593.09  1620.21  1669.69  1686.92
                             1694.35  1706.30  1722.82  1728.80  1738.61
                             1759.22  1759.92  1763.55  1771.14  1781.53
                             1788.33  1793.83  1803.84  1827.09  1852.12
                             1861.25  1865.09  1877.23  1886.44  1895.05
                             1896.42  1900.20  1910.46  1928.20  1936.53
                             1941.56  1989.37  1990.95  2012.04  2033.88
                             2044.53  2066.62  2073.81  2093.44  2102.96
                             2114.87  2129.37  2133.63  2138.35  2161.27
                             2173.26  2193.50  2195.98  2199.65  2202.28
                             2206.63  2208.61  2219.31  2227.57  2241.91
                             2242.24  2247.46  2247.69  2260.14  2273.61
                             2532.09  2559.03  4425.23  4449.72  4457.36
                             4463.37  4464.90  4470.28  4475.43  4494.50
                             4504.56  4544.52  4576.23  4580.57  4590.21
                             4624.14  4638.29  4644.03  4647.99  4653.80
                             4661.10  4757.52  4758.73  4768.75

 Zero-point correction=                           0.429171 (Hartree/Particle)
 Thermal correction to Energy=                    0.461310
 Thermal correction to Enthalpy=                  0.462255
 Thermal correction to Gibbs Free Energy=         0.361629
 Sum of electronic and zero-point Energies=          -2284.864805
 Sum of electronic and thermal Energies=             -2284.832666
 Sum of electronic and thermal Enthalpies=           -2284.831722
 Sum of electronic and thermal Free Energies=        -2284.932347

                     E (Thermal)             CV                S
                      KCal/Mol        Cal/Mol-Kelvin    Cal/Mol-Kelvin
 Total                  289.477            115.636            211.784
 Electronic               0.000              0.000              0.000
 Translational            0.889              2.981             44.587
 Rotational               0.889              2.981             36.880
 Vibrational            287.699            109.674            130.317
 Vibration     1          0.593              1.987              7.462
 Vibration     2          0.593              1.986              6.848
 Vibration     3          0.593              1.985              6.501
 Vibration     4          0.593              1.984              6.064
 Vibration     5          0.594              1.981              5.333
 Vibration     6          0.595              1.979              4.954
 Vibration     7          0.596              1.976              4.648
 Vibration     8          0.597              1.973              4.417
 Vibration     9          0.598              1.969              4.209
 Vibration    10          0.599              1.965              3.966
 Vibration    11          0.601              1.960              3.785
 Vibration    12          0.603              1.953              3.569
 Vibration    13          0.603              1.951              3.495
 Vibration    14          0.605              1.946              3.366
 Vibration    15          0.606              1.942              3.279
 Vibration    16          0.608              1.935              3.136
 Vibration    17          0.613              1.919              2.877
 Vibration    18          0.621              1.893              2.566
 Vibration    19          0.625              1.879              2.435
 Vibration    20          0.630              1.866              2.322
 Vibration    21          0.631              1.862              2.291
 Vibration    22          0.635              1.848              2.186
 Vibration    23          0.640              1.834              2.095
 Vibration    24          0.645              1.817              1.994
 Vibration    25          0.651              1.799              1.899
 Vibration    26          0.659              1.775              1.785
 Vibration    27          0.662              1.766              1.745
 Vibration    28          0.666              1.752              1.688
 Vibration    29          0.674              1.729              1.599
 Vibration    30          0.677              1.718              1.561
 Vibration    31          0.690              1.682              1.442
 Vibration    32          0.693              1.672              1.412
 Vibration    33          0.697              1.660              1.379
 Vibration    34          0.700              1.652              1.354
 Vibration    35          0.712              1.619              1.268
 Vibration    36          0.723              1.588              1.194
 Vibration    37          0.736              1.551              1.115
 Vibration    38          0.742              1.535              1.083
 Vibration    39          0.750              1.512              1.039
 Vibration    40          0.763              1.478              0.977
 Vibration    41          0.795              1.395              0.844
 Vibration    42          0.804              1.374              0.814
 Vibration    43          0.811              1.357              0.790
 Vibration    44          0.836              1.296              0.712
 Vibration    45          0.847              1.271              0.682
 Vibration    46          0.855              1.251              0.659
 Vibration    47          0.878              1.198              0.602
 Vibration    48          0.880              1.194              0.598
 Vibration    49          0.904              1.142              0.547
 Vibration    50          0.916              1.118              0.524
 Vibration    51          0.928              1.092              0.501
 Vibration    52          0.954              1.040              0.456
 Vibration    53          0.961              1.026              0.445
 Vibration    54          0.979              0.992              0.418

                           ! Non-Optimized Parameters !
 Normal termination of Gaussian 16 at Wed Jun  5 17:29:31 2019.
