 Gaussian 16, Revision A.03,
 Gaussian 16:  AS64L-G16RevA.03 25-Dec-2016

 ----------------------------------------------------------------------
 #p opt freq=noraman pop=none 6-31g* scrf=(pcm,solvent=tetrahydrofuran)
  b98
 ----------------------------------------------------------------------

 -----
 title
 -----
 Symbolic Z-matrix:
 Charge =  0 Multiplicity = 1

 SCF Done:  E(RB98) =  -2297.34457472     A.U. after   13 cycles
 Optimization completed.
    -- Stationary point found.

 1\1\GINC-NODE037\FOpt\RB98\6-31G(d)\C18H22F6O8S1\EKWAN\05-Jun-2019\0\\
 #p opt freq=noraman pop=none 6-31g* scrf=(pcm,solvent=tetrahydrofuran)
  b98\\title\\0,1\C,3.544782,-0.196967,0.728402\C,3.364699,-0.509745,-0
 .767253\C,1.878331,-0.409452,-1.185045\C,1.359235,1.096507,0.606103\C,
 2.821197,1.111209,1.089215\H,1.757141,-0.479611,-2.267533\H,3.891184,0
 .271777,-1.341893\H,3.109597,-1.013615,1.323957\H,0.807721,0.328186,1.
 168843\H,3.340078,1.949069,0.60299\O,1.28861,0.785617,-0.802036\O,1.20
 2537,-1.553892,-0.578506\O,3.916832,-1.775459,-1.037428\O,4.91679,-0.0

 Normal termination of Gaussian 16 at Wed Jun  5 16:31:53 2019.

 ------------------------------------------------------------------
 #P Geom=AllCheck Guess=TCheck SCRF=Check GenChk RB98/6-31G(d) Freq
 ------------------------------------------------------------------

 Structure from the checkpoint file:  "/scratch/users/ekwan/clay_new-glu_gluC6-bisCF3-sm-b98-631gd-pcm_thf/Gau-16375.chk"
 -----
 title
 -----
 Charge =  0 Multiplicity = 1

                         Standard orientation:
 ---------------------------------------------------------------------
 Center     Atomic      Atomic             Coordinates (Angstroms)
 Number     Number       Type             X           Y           Z
 ---------------------------------------------------------------------
      1          6           0        3.544782   -0.196967    0.728402
      2          6           0        3.364699   -0.509745   -0.767253
      3          6           0        1.878331   -0.409452   -1.185045
      4          6           0        1.359235    1.096507    0.606103
      5          6           0        2.821197    1.111209    1.089215
      6          1           0        1.757141   -0.479611   -2.267533
      7          1           0        3.891184    0.271777   -1.341893
      8          1           0        3.109597   -1.013615    1.323957
      9          1           0        0.807721    0.328186    1.168843
     10          1           0        3.340078    1.949069    0.602990
     11          8           0        1.288610    0.785617   -0.802036
     12          8           0        1.202537   -1.553892   -0.578506
     13          8           0        3.916832   -1.775459   -1.037428
     14          8           0        4.916790   -0.032523    1.042340
     15          8           0        2.798837    1.283342    2.496384
     16          6           0        0.646198    2.433866    0.835957
     17          1           0        0.546666    2.561309    1.919167
     18          1           0       -0.361756    2.384216    0.396885
     19          8           0        1.342872    3.570380    0.364624
     20         16           0       -0.095299   -2.199676   -1.319620
     21          8           0       -0.192277   -3.545376   -0.781153
     22          8           0        0.013491   -1.961336   -2.754376
     23          6           0       -1.472324   -1.234559   -0.687579
     24          6           0       -2.139957   -1.680041    0.453999
     25          6           0       -1.841139   -0.062138   -1.349889
     26          6           0       -3.206577   -0.920266    0.943802
     27          1           0       -1.837806   -2.600881    0.942111
     28          6           0       -2.902201    0.687680   -0.836944
     29          1           0       -1.316975    0.256095   -2.244415
     30          6           0       -3.587395    0.263651    0.306207
     31          1           0       -4.413587    0.850279    0.694682
     32          6           0        4.196156   -2.024327   -2.408301
     33          1           0        3.279306   -2.135363   -3.005214
     34          1           0        4.811358   -1.221481   -2.841876
     35          1           0        4.753139   -2.964297   -2.446481
     36          6           0        5.544235   -1.179157    1.599888
     37          1           0        6.576397   -0.890860    1.821862
     38          1           0        5.051074   -1.485939    2.534939
     39          1           0        5.543140   -2.022150    0.898724
     40          6           0        3.691513    2.277427    2.981829
     41          1           0        3.562072    2.308784    4.068117
     42          1           0        4.733492    2.027080    2.746205
     43          1           0        3.450703    3.265680    2.562827
     44          6           0        1.146394    3.866591   -1.011152
     45          1           0        1.563354    4.864562   -1.179113
     46          1           0        0.074764    3.878301   -1.263087
     47          1           0        1.653244    3.146855   -1.666286
     48          6           0       -3.991136   -1.417169    2.139969
     49          9           0       -3.216573   -2.130016    2.976781
     50          9           0       -5.007793   -2.215495    1.759651
     51          9           0       -4.524505   -0.398877    2.838557
     52          6           0       -3.269616    2.002474   -1.489974
     53          9           0       -2.571349    3.026614   -0.947146
     54          9           0       -4.572593    2.289910   -1.333251
     55          9           0       -3.001122    1.996453   -2.806335
 ---------------------------------------------------------------------

 SCF Done:  E(RB98) =  -2297.34457472     A.U. after    1 cycles

 Isotropic polarizability for W=    0.000000      276.35 Bohr**3.
 End of Minotr F.D. properties file   721 does not exist.

                      1                      2                      3
                      A                      A                      A
 Frequencies --     12.5165                17.5448                19.6983
 Red. masses --      9.5641                 6.7153                15.6097
 Frc consts  --      0.0009                 0.0012                 0.0036
 IR Inten    --      0.1273                 0.3297                 0.0127

                      4                      5                      6
                      A                      A                      A
 Frequencies --     26.4028                36.7184                42.4281
 Red. masses --     11.7759                 4.8400                 5.8222
 Frc consts  --      0.0048                 0.0038                 0.0062
 IR Inten    --      0.0227                 0.1775                 0.3088

                      7                      8                      9
                      A                      A                      A
 Frequencies --     49.9724                54.1491                58.6746
 Red. masses --      4.7620                 3.6474                 4.0653
 Frc consts  --      0.0070                 0.0063                 0.0082
 IR Inten    --      1.3263                 1.1746                 1.9832

                     10                     11                     12
                      A                      A                      A
 Frequencies --     70.6735                75.1341                82.2635
 Red. masses --      3.5041                 2.7941                 3.1444
 Frc consts  --      0.0103                 0.0093                 0.0125
 IR Inten    --      2.3176                 4.7800                 2.5969

                     13                     14                     15
                      A                      A                      A
 Frequencies --     85.5347                99.7650               102.1470
 Red. masses --      2.9296                12.2892                 6.9218
 Frc consts  --      0.0126                 0.0721                 0.0426
 IR Inten    --      5.9453                 2.8600                 4.2769

                     16                     17                     18
                      A                      A                      A
 Frequencies --    112.9307               117.9217               150.8242
 Red. masses --      3.3953                 4.0474                 7.3156
 Frc consts  --      0.0255                 0.0332                 0.0980
 IR Inten    --      1.7911                 2.4173                 0.1197

                     19                     20                     21
                      A                      A                      A
 Frequencies --    153.7270               163.8640               168.8983
 Red. masses --      1.3158                 2.2515                 2.8612
 Frc consts  --      0.0183                 0.0356                 0.0481
 IR Inten    --      0.4290                 0.3344                 1.0635

                     22                     23                     24
                      A                      A                      A
 Frequencies --    177.5830               188.5469               195.0848
 Red. masses --      1.7305                 3.5149                 2.1281
 Frc consts  --      0.0322                 0.0736                 0.0477
 IR Inten    --      1.9828                 4.0402                 2.8739

                     25                     26                     27
                      A                      A                      A
 Frequencies --    202.6448               225.2042               236.8018
 Red. masses --      1.7349                 2.4742                12.1811
 Frc consts  --      0.0420                 0.0739                 0.4024
 IR Inten    --      0.7517                 9.8484                 0.1645

                     28                     29                     30
                      A                      A                      A
 Frequencies --    243.1274               254.6918               256.4496
 Red. masses --      4.1873                 6.0413                 3.2996
 Frc consts  --      0.1458                 0.2309                 0.1279
 IR Inten    --      4.8429                12.4934                10.1267

                     31                     32                     33
                      A                      A                      A
 Frequencies --    280.5611               286.1996               289.4702
 Red. masses --     10.7235                 5.0362                 9.5784
 Frc consts  --      0.4973                 0.2430                 0.4729
 IR Inten    --      3.0756                10.0982                 4.6729

                     34                     35                     36
                      A                      A                      A
 Frequencies --    291.6771               313.2237               321.8386
 Red. masses --      8.4534                 5.4921                 4.1242
 Frc consts  --      0.4237                 0.3175                 0.2517
 IR Inten    --      9.6518                 0.1735                 4.7688

                     37                     38                     39
                      A                      A                      A
 Frequencies --    341.6968               351.0278               357.4697
 Red. masses --      6.9597                 7.2452                 4.4808
 Frc consts  --      0.4788                 0.5260                 0.3374
 IR Inten    --      1.1197                 4.9399                 5.6911

                     40                     41                     42
                      A                      A                      A
 Frequencies --    365.2825               410.7624               417.9754
 Red. masses --      9.5041                10.1765                 8.7873
 Frc consts  --      0.7472                 1.0116                 0.9045
 IR Inten    --     14.9581                14.5156                 6.5811

                     43                     44                     45
                      A                      A                      A
 Frequencies --    440.7357               450.2103               462.1840
 Red. masses --      2.1828                 5.3015                 8.2946
 Frc consts  --      0.2498                 0.6331                 1.0439
 IR Inten    --      7.1375                12.8041                12.4592

                     46                     47                     48
                      A                      A                      A
 Frequencies --    468.1082               493.6298               500.2657
 Red. masses --      4.1848                 8.0282                11.9368
 Frc consts  --      0.5403                 1.1526                 1.7601
 IR Inten    --     10.5681                19.3433                 0.8935

                     49                     50                     51
                      A                      A                      A
 Frequencies --    521.9109               528.5975               539.2090
 Red. masses --      4.8043                11.1552                 4.6393
 Frc consts  --      0.7710                 1.8364                 0.7947
 IR Inten    --     38.0023                28.6206                14.9211

                     52                     53                     54
                      A                      A                      A
 Frequencies --    565.0843               568.3792               579.5076
 Red. masses --      3.8351                15.2386                11.6536
 Frc consts  --      0.7215                 2.9005                 2.3058
 IR Inten    --     37.3199                27.8348               264.8444

                     55                     56                     57
                      A                      A                      A
 Frequencies --    601.3788               611.5343               628.5612
 Red. masses --      6.9758                 8.1593                 5.6244
 Frc consts  --      1.4864                 1.7978                 1.3093
 IR Inten    --     38.9672                 2.0730                13.5340

                     58                     59                     60
                      A                      A                      A
 Frequencies --    672.6467               678.7411               681.1885
 Red. masses --      7.7938                 6.6439                11.8432
 Frc consts  --      2.0777                 1.8034                 3.2378
 IR Inten    --      0.8163                55.2974                55.5327

                     61                     62                     63
                      A                      A                      A
 Frequencies --    706.0114               716.7583               728.8850
 Red. masses --      2.6896                 7.9943                 6.1894
 Frc consts  --      0.7899                 2.4198                 1.9374
 IR Inten    --     25.6630                14.1505                72.0657

                     64                     65                     66
                      A                      A                      A
 Frequencies --    803.1872               831.6226               836.2562
 Red. masses --      8.9298                 4.4523                 7.5351
 Frc consts  --      3.3941                 1.8142                 3.1047
 IR Inten    --    490.1449               141.2734                79.8345

                     67                     68                     69
                      A                      A                      A
 Frequencies --    857.4234               876.1254               912.0802
 Red. masses --     12.0712                 4.0903                 1.5331
 Frc consts  --      5.2287                 1.8499                 0.7514
 IR Inten    --     22.6219                47.0709                71.5189

                     70                     71                     72
                      A                      A                      A
 Frequencies --    925.4038               943.4736               955.6324
 Red. masses --      2.8464                 1.3884                 1.3663
 Frc consts  --      1.4362                 0.7282                 0.7352
 IR Inten    --     23.2352                 1.2665                 8.3736

                     73                     74                     75
                      A                      A                      A
 Frequencies --    965.7917               976.2777              1004.1104
 Red. masses --      4.9180                 4.3217                 4.2715
 Frc consts  --      2.7028                 2.4269                 2.5375
 IR Inten    --      6.2765                43.5397                45.8183

                     76                     77                     78
                      A                      A                      A
 Frequencies --   1010.3152              1021.0658              1042.0019
 Red. masses --      6.2707                 4.4791                 3.5688
 Frc consts  --      3.7712                 2.7513                 2.2830
 IR Inten    --      1.1798                16.7709               130.3122

                     79                     80                     81
                      A                      A                      A
 Frequencies --   1080.9305              1111.8708              1117.2384
 Red. masses --      3.2563                11.9785                 2.9545
 Frc consts  --      2.2417                 8.7249                 2.1728
 IR Inten    --     17.0418                95.3050               100.7862

                     82                     83                     84
                      A                      A                      A
 Frequencies --   1122.2811              1128.9133              1133.7832
 Red. masses --      2.7310                 2.2294                 3.1176
 Frc consts  --      2.0266                 1.6740                 2.3612
 IR Inten    --     24.3085                79.7822               212.8516

                     85                     86                     87
                      A                      A                      A
 Frequencies --   1134.6511              1149.9924              1156.3810
 Red. masses --      2.0717                 4.5560                 4.4038
 Frc consts  --      1.5714                 3.5500                 3.4696
 IR Inten    --     43.2445                72.5778               235.6643

                     88                     89                     90
                      A                      A                      A
 Frequencies --   1162.8651              1170.7413              1176.1935
 Red. masses --      5.9747                 9.4140                 3.5478
 Frc consts  --      4.7602                 7.6023                 2.8918
 IR Inten    --    526.6643               405.9574                60.4439

                     91                     92                     93
                      A                      A                      A
 Frequencies --   1184.3684              1184.9774              1187.1983
 Red. masses --      1.4647                 3.3680                11.4944
 Frc consts  --      1.2105                 2.7864                 9.5451
 IR Inten    --     21.5875               141.4553               353.1672

                     94                     95                     96
                      A                      A                      A
 Frequencies --   1189.5073              1191.3751              1191.8071
 Red. masses --      1.3473                 1.3222                 2.4398
 Frc consts  --      1.1232                 1.1057                 2.0418
 IR Inten    --     10.2741                13.1925                64.3015

                     97                     98                     99
                      A                      A                      A
 Frequencies --   1193.7852              1215.1022              1217.2010
 Red. masses --      1.4309                 7.7927                 1.4031
 Frc consts  --      1.2015                 6.7790                 1.2248
 IR Inten    --     40.5137               166.8509                57.3790

                    100                    101                    102
                      A                      A                      A
 Frequencies --   1221.4157              1226.0721              1234.5557
 Red. masses --      6.6288                 1.4869                 1.7017
 Frc consts  --      5.8266                 1.3169                 1.5281
 IR Inten    --    283.8230                29.3608                12.7245

                    103                    104                    105
                      A                      A                      A
 Frequencies --   1240.7212              1266.9236              1284.8128
 Red. masses --      1.6184                 1.7489                 3.4849
 Frc consts  --      1.4679                 1.6539                 3.3894
 IR Inten    --     33.5213                 8.2038               781.8196

                    106                    107                    108
                      A                      A                      A
 Frequencies --   1305.9594              1311.9701              1339.8412
 Red. masses --      1.4443                 1.4955                 1.4060
 Frc consts  --      1.4514                 1.5167                 1.4871
 IR Inten    --      2.3695                19.3714                 2.3691

                    109                    110                    111
                      A                      A                      A
 Frequencies --   1346.1331              1354.5959              1367.3874
 Red. masses --      1.1866                 8.7855                 6.0564
 Frc consts  --      1.2669                 9.4981                 6.6718
 IR Inten    --     12.4656               232.3930               212.7321

                    112                    113                    114
                      A                      A                      A
 Frequencies --   1372.1885              1372.7030              1377.3100
 Red. masses --      4.0014                 1.2398                 1.2525
 Frc consts  --      4.4390                 1.3764                 1.3999
 IR Inten    --     37.7925                13.8178                14.5106

                    115                    116                    117
                      A                      A                      A
 Frequencies --   1395.1753              1403.7751              1417.3538
 Red. masses --      1.3758                 1.3518                 1.2918
 Frc consts  --      1.5778                 1.5695                 1.5289
 IR Inten    --      3.1025                12.0626                 9.1134

                    118                    119                    120
                      A                      A                      A
 Frequencies --   1426.4300              1434.5608              1445.0631
 Red. masses --      1.3311                 1.2805                 1.3156
 Frc consts  --      1.5958                 1.5527                 1.6186
 IR Inten    --     35.7892                 9.8846                12.7807

                    121                    122                    123
                      A                      A                      A
 Frequencies --   1482.9264              1490.6297              1492.1778
 Red. masses --      3.5902                 3.8363                 1.1018
 Frc consts  --      4.6516                 5.0222                 1.4455
 IR Inten    --      7.9673                 1.4029                 3.2322

                    124                    125                    126
                      A                      A                      A
 Frequencies --   1498.2297              1500.1169              1503.0480
 Red. masses --      1.1629                 1.1607                 1.1167
 Frc consts  --      1.5379                 1.5389                 1.4864
 IR Inten    --      0.9507                 0.6748                 5.8209

                    127                    128                    129
                      A                      A                      A
 Frequencies --   1509.7262              1512.0350              1512.6278
 Red. masses --      1.0526                 1.0658                 1.0537
 Frc consts  --      1.4135                 1.4357                 1.4204
 IR Inten    --      2.7372                13.8151                 0.5726

                    130                    131                    132
                      A                      A                      A
 Frequencies --   1518.4132              1521.7971              1531.7908
 Red. masses --      1.1239                 1.0895                 1.0512
 Frc consts  --      1.5267                 1.4866                 1.4532
 IR Inten    --      1.3238                 4.8076                12.2594

                    133                    134                    135
                      A                      A                      A
 Frequencies --   1536.0679              1537.1612              1539.2255
 Red. masses --      1.0510                 1.0502                 1.0567
 Frc consts  --      1.4611                 1.4620                 1.4750
 IR Inten    --      9.3547                 6.7020                 9.6838

                    136                    137                    138
                      A                      A                      A
 Frequencies --   1641.9026              1663.4434              2998.0759
 Red. masses --      5.9605                 5.7301                 1.0814
 Frc consts  --      9.4673                 9.3417                 5.7269
 IR Inten    --     14.9795                19.8170                28.6300

                    139                    140                    141
                      A                      A                      A
 Frequencies --   3012.2154              3016.0116              3017.9127
 Red. masses --      1.0359                 1.0401                 1.0371
 Frc consts  --      5.5381                 5.5744                 5.5654
 IR Inten    --     76.8526                68.9106                54.9215

                    142                    143                    144
                      A                      A                      A
 Frequencies --   3019.9015              3031.4478              3034.9462
 Red. masses --      1.0361                 1.0738                 1.0831
 Frc consts  --      5.5672                 5.8139                 5.8781
 IR Inten    --     66.9265                11.6690                19.6175

                    145                    146                    147
                      A                      A                      A
 Frequencies --   3041.5145              3057.8834              3070.5139
 Red. masses --      1.0735                 1.0847                 1.1058
 Frc consts  --      5.8509                 5.9758                 6.1428
 IR Inten    --     50.8633                63.9555                63.9153

                    148                    149                    150
                      A                      A                      A
 Frequencies --   3088.9634              3092.5485              3095.3506
 Red. masses --      1.0987                 1.1008                 1.0947
 Frc consts  --      6.1765                 6.2031                 6.1797
 IR Inten    --     49.0059                57.0382                50.2107

                    151                    152                    153
                      A                      A                      A
 Frequencies --   3116.6651              3133.3817              3137.0895
 Red. masses --      1.0989                 1.1033                 1.1032
 Frc consts  --      6.2894                 6.3822                 6.3969
 IR Inten    --     21.6687                48.7636                40.1342

                    154                    155                    156
                      A                      A                      A
 Frequencies --   3138.2654              3145.5078              3148.2571
 Red. masses --      1.1045                 1.0953                 1.0918
 Frc consts  --      6.4089                 6.3853                 6.3760
 IR Inten    --     37.9973                31.7850                11.4274

                    157                    158                    159
                      A                      A                      A
 Frequencies --   3238.5021              3241.9050              3247.1749
 Red. masses --      1.0918                 1.0918                 1.0917
 Frc consts  --      6.7465                 6.7607                 6.7823
 IR Inten    --      1.2576                 6.6896                 4.7048

 - Thermochemistry -
 -------------------
 Temperature   298.150 Kelvin.  Pressure   1.00000 Atm.
 Atom     1 has atomic number  6 and mass  12.00000

 Molecular mass:   512.09396 amu.
 Principal axes and moments of inertia in atomic units:
                           1         2         3
     Eigenvalues --  ******************************
           X            0.99994  -0.00047   0.01078
           Y           -0.00043   0.99653   0.08329
           Z           -0.01078  -0.08329   0.99647
 This molecule is an asymmetric top.
 Rotational symmetry number  1.
 Warning -- assumption of classical behavior for rotation
           may cause significant error
 Rotational temperatures (Kelvin)      0.00720     0.00385     0.00355
 Rotational constants (GHZ):           0.15005     0.08017     0.07387
 Zero-point vibrational energy    1079479.4 (Joules/Mol)
                                  258.00178 (Kcal/Mol)
 Warning -- explicit consideration of  56 degrees of freedom as
           vibrations may cause significant error
 Vibrational temperatures:     18.01    25.24    28.34    37.99    52.83
          (Kelvin)             61.04    71.90    77.91    84.42   101.68
                              108.10   118.36   123.07   143.54   146.97
                              162.48   169.66   217.00   221.18   235.76
                              243.01   255.50   271.28   280.68   291.56
                              324.02   340.71   349.81   366.44   368.97
                              403.66   411.78   416.48   419.66   450.66
                              463.05   491.63   505.05   514.32   525.56
                              591.00   601.37   634.12   647.75   664.98
                              673.50   710.22   719.77   750.91   760.53
                              775.80   813.03   817.77   833.78   865.25
                              879.86   904.36   967.79   976.56   980.08
                             1015.79  1031.26  1048.70  1155.61  1196.52
                             1203.19  1233.64  1260.55  1312.28  1331.45
                             1357.45  1374.94  1389.56  1404.65  1444.69
                             1453.62  1469.09  1499.21  1555.22  1599.73
                             1607.46  1614.71  1624.25  1631.26  1632.51
                             1654.58  1663.77  1673.10  1684.44  1692.28
                             1704.04  1704.92  1708.11  1711.44  1714.12
                             1714.74  1717.59  1748.26  1751.28  1757.34
                             1764.04  1776.25  1785.12  1822.82  1848.56
                             1878.98  1887.63  1927.73  1936.79  1948.96
                             1967.37  1974.27  1975.01  1981.64  2007.35
                             2019.72  2039.26  2052.31  2064.01  2079.12
                             2133.60  2144.68  2146.91  2155.62  2158.33
                             2162.55  2172.16  2175.48  2176.33  2184.66
                             2189.53  2203.91  2210.06  2211.63  2214.60
                             2362.33  2393.32  4313.56  4333.91  4339.37
                             4342.10  4344.96  4361.58  4366.61  4376.06
                             4399.61  4417.78  4444.33  4449.49  4453.52
                             4484.19  4508.24  4513.57  4515.26  4525.68
                             4529.64  4659.48  4664.38  4671.96

 Zero-point correction=                           0.411152 (Hartree/Particle)
 Thermal correction to Energy=                    0.444838
 Thermal correction to Enthalpy=                  0.445782
 Thermal correction to Gibbs Free Energy=         0.341242
 Sum of electronic and zero-point Energies=          -2296.933423
 Sum of electronic and thermal Energies=             -2296.899737
 Sum of electronic and thermal Enthalpies=           -2296.898793
 Sum of electronic and thermal Free Energies=        -2297.003333

                     E (Thermal)             CV                S
                      KCal/Mol        Cal/Mol-Kelvin    Cal/Mol-Kelvin
 Total                  279.140            121.079            220.023
 Electronic               0.000              0.000              0.000
 Translational            0.889              2.981             44.587
 Rotational               0.889              2.981             37.134
 Vibrational            277.363            115.118            138.302
 Vibration     1          0.593              1.987              7.565
 Vibration     2          0.593              1.986              6.894
 Vibration     3          0.593              1.986              6.664
 Vibration     4          0.593              1.985              6.083
 Vibration     5          0.594              1.982              5.429
 Vibration     6          0.595              1.980              5.142
 Vibration     7          0.595              1.978              4.818
 Vibration     8          0.596              1.976              4.660
 Vibration     9          0.596              1.974              4.501
 Vibration    10          0.598              1.968              4.135
 Vibration    11          0.599              1.966              4.014
 Vibration    12          0.600              1.961              3.836
 Vibration    13          0.601              1.959              3.760
 Vibration    14          0.604              1.949              3.459
 Vibration    15          0.604              1.947              3.413
 Vibration    16          0.607              1.939              3.218
 Vibration    17          0.608              1.934              3.134
 Vibration    18          0.618              1.902              2.662
 Vibration    19          0.619              1.899              2.626
 Vibration    20          0.623              1.887              2.505
 Vibration    21          0.625              1.881              2.448
 Vibration    22          0.628              1.870              2.354
 Vibration    23          0.633              1.856              2.242
 Vibration    24          0.636              1.847              2.179
 Vibration    25          0.639              1.836              2.109
 Vibration    26          0.650              1.803              1.917
 Vibration    27          0.656              1.784              1.827
 Vibration    28          0.659              1.774              1.780
 Vibration    29          0.665              1.755              1.698
 Vibration    30          0.666              1.752              1.686
 Vibration    31          0.680              1.710              1.530
 Vibration    32          0.684              1.699              1.496
 Vibration    33          0.686              1.693              1.477
 Vibration    34          0.687              1.689              1.464
 Vibration    35          0.701              1.648              1.345
 Vibration    36          0.707              1.632              1.301
 Vibration    37          0.721              1.592              1.204
 Vibration    38          0.728              1.573              1.162
 Vibration    39          0.733              1.560              1.133
 Vibration    40          0.739              1.544              1.100
 Vibration    41          0.775              1.447              0.924
 Vibration    42          0.781              1.431              0.899
 Vibration    43          0.801              1.381              0.824
 Vibration    44          0.809              1.360              0.795
 Vibration    45          0.820              1.334              0.760
 Vibration    46          0.825              1.321              0.743
 Vibration    47          0.849              1.264              0.674
 Vibration    48          0.856              1.249              0.657
 Vibration    49          0.877              1.201              0.606
 Vibration    50          0.884              1.187              0.590
 Vibration    51          0.894              1.163              0.567
 Vibration    52          0.921              1.107              0.514
 Vibration    53          0.924              1.100              0.507
 Vibration    54          0.936              1.076              0.486
 Vibration    55          0.960              1.029              0.447
 Vibration    56          0.971              1.007              0.430

 Optimization completed.
    -- Stationary point found.

 1\1\GINC-NODE037\Freq\RB98\6-31G(d)\C18H22F6O8S1\EKWAN\05-Jun-2019\0\\
 #P Geom=AllCheck Guess=TCheck SCRF=Check GenChk RB98/6-31G(d) Freq\\ti
 tle\\0,1\C,3.544782,-0.196967,0.728402\C,3.364699,-0.509745,-0.767253\
 C,1.878331,-0.409452,-1.185045\C,1.359235,1.096507,0.606103\C,2.821197
 ,1.111209,1.089215\H,1.757141,-0.479611,-2.267533\H,3.891184,0.271777,
 -1.341893\H,3.109597,-1.013615,1.323957\H,0.807721,0.328186,1.168843\H
 ,3.340078,1.949069,0.60299\O,1.28861,0.785617,-0.802036\O,1.202537,-1.
 553892,-0.578506\O,3.916832,-1.775459,-1.037428\O,4.91679,-0.032523,1.

 Normal termination of Gaussian 16 at Wed Jun  5 17:17:11 2019.
