 Gaussian 16, Revision A.03,
 Gaussian 16:  AS64L-G16RevA.03 25-Dec-2016

 ----------------------------------------------------------------------
 #p opt freq=noraman 6-31g(d) scrf=(solvent=tetrahydrofuran,pcm) pop=no
 ne b97d empiricaldispersion=gd3
 ----------------------------------------------------------------------

 -----
 title
 -----
 Symbolic Z-matrix:
 Charge =  0 Multiplicity = 1

 SCF Done:  E(RB97D) =  -2296.95546851     A.U. after   15 cycles
 SCF Done:  E(RB97D) =  -2296.95546780     A.U. after    6 cycles
 SCF Done:  E(RB97D) =  -2296.95546699     A.U. after    8 cycles
 SCF Done:  E(RB97D) =  -2296.95546935     A.U. after    7 cycles
 SCF Done:  E(RB97D) =  -2296.95546829     A.U. after    7 cycles
 Optimization completed.
    -- Stationary point found.
 Normal termination of Gaussian 16 at Mon Jun 10 06:02:52 2019.

 -------------------------------------------------------------------
 #P Geom=AllCheck Guess=TCheck SCRF=Check GenChk RB97D/6-31G(d) Freq
 -------------------------------------------------------------------

 Structure from the checkpoint file:  "/scratch/users/ekwan/clay_new-glu_gluC6-bisCF3-sm-b97d3-631gd-pcm_thf/Gau-51684.chk"
 -----
 title
 -----
 Charge =  0 Multiplicity = 1

                         Standard orientation:
 ---------------------------------------------------------------------
 Center     Atomic      Atomic             Coordinates (Angstroms)
 Number     Number       Type             X           Y           Z
 ---------------------------------------------------------------------
      1          6           0        3.408096    0.436450    0.563440
      2          6           0        3.331995   -0.538063   -0.627389
      3          6           0        1.861632   -0.907442   -0.950499
      4          6           0        1.009754    1.113513    0.024519
      5          6           0        2.425986    1.603369    0.370990
      6          1           0        1.777135   -1.488495   -1.875815
      7          1           0        3.710112   -0.011730   -1.526359
      8          1           0        3.134137   -0.105249    1.485199
      9          1           0        0.594755    0.566480    0.888110
     10          1           0        2.785527    2.231015   -0.460033
     11          8           0        1.044580    0.212133   -1.119852
     12          8           0        1.410734   -1.750130    0.172201
     13          8           0        4.134465   -1.668647   -0.330815
     14          8           0        4.715308    1.002155    0.673640
     15          8           0        2.324174    2.359031    1.579628
     16          6           0        0.059518    2.273579   -0.303563
     17          1           0       -0.153344    2.791134    0.641585
     18          1           0       -0.882385    1.863021   -0.706390
     19          8           0        0.596849    3.265564   -1.174722
     20         16           0        0.100725   -2.734355   -0.089051
     21          8           0        0.082568   -3.623870    1.077528
     22          8           0        0.155142   -3.254786   -1.465838
     23          6           0       -1.282865   -1.587391    0.035097
     24          6           0       -1.750549   -1.230969    1.304976
     25          6           0       -1.820919   -1.046519   -1.137854
     26          6           0       -2.795230   -0.299276    1.393507
     27          1           0       -1.312156   -1.668242    2.199877
     28          6           0       -2.865915   -0.121077   -1.024702
     29          1           0       -1.431110   -1.337998   -2.109803
     30          6           0       -3.355034    0.257073    0.234955
     31          1           0       -4.162833    0.982365    0.312236
     32          6           0        4.337315   -2.555132   -1.437685
     33          1           0        3.422497   -3.122229   -1.683783
     34          1           0        4.674603   -2.007301   -2.336736
     35          1           0        5.118697   -3.261634   -1.129440
     36          6           0        5.575512    0.324038    1.597377
     37          1           0        6.524464    0.878144    1.598856
     38          1           0        5.150853    0.335118    2.618509
     39          1           0        5.754592   -0.718242    1.292241
     40          6           0        2.964852    3.639460    1.510180
     41          1           0        2.815185    4.115367    2.489326
     42          1           0        4.043929    3.531761    1.313616
     43          1           0        2.508354    4.267687    0.724881
     44          6           0        0.647711    2.869605   -2.551920
     45          1           0        0.902517    3.771760   -3.125176
     46          1           0       -0.330698    2.484831   -2.890987
     47          1           0        1.410103    2.094005   -2.728986
     48          6           0       -3.365438    0.065569    2.750283
     49          9           0       -2.440809   -0.073376    3.736704
     50          9           0       -4.422057   -0.733543    3.068256
     51          9           0       -3.810942    1.350627    2.773344
     52          6           0       -3.419920    0.551189   -2.263894
     53          9           0       -2.848420    1.782375   -2.444657
     54          9           0       -4.760595    0.750308   -2.167680
     55          9           0       -3.181186   -0.172097   -3.386763
 ---------------------------------------------------------------------

 SCF Done:  E(RB97D) =  -2296.95546829     A.U. after    1 cycles

 Isotropic polarizability for W=    0.000000      291.09 Bohr**3.
 End of Minotr F.D. properties file   721 does not exist.

                      1                      2                      3
                      A                      A                      A
 Frequencies --     11.3719                13.1427                20.1412
 Red. masses --     17.6356                 9.4485                 7.0927
 Frc consts  --      0.0013                 0.0010                 0.0017
 IR Inten    --      0.0234                 0.1778                 0.2021

                      4                      5                      6
                      A                      A                      A
 Frequencies --     24.7718                35.7118                42.0319
 Red. masses --     12.4368                 5.0636                 4.8469
 Frc consts  --      0.0045                 0.0038                 0.0050
 IR Inten    --      0.0286                 0.4338                 1.1189

                      7                      8                      9
                      A                      A                      A
 Frequencies --     51.2313                57.3147                61.5242
 Red. masses --      4.6282                 3.3065                 3.5041
 Frc consts  --      0.0072                 0.0064                 0.0078
 IR Inten    --      0.6477                 0.7033                 5.3006

                     10                     11                     12
                      A                      A                      A
 Frequencies --     70.0407                73.0559                84.1825
 Red. masses --      3.5185                 3.2662                 3.1378
 Frc consts  --      0.0102                 0.0103                 0.0131
 IR Inten    --      0.8012                 4.7753                 3.4390

                     13                     14                     15
                      A                      A                      A
 Frequencies --     96.1496                99.7385               104.2302
 Red. masses --      5.0482                 6.8631                 7.8235
 Frc consts  --      0.0275                 0.0402                 0.0501
 IR Inten    --      2.9401                 2.8952                 2.7750

                     16                     17                     18
                      A                      A                      A
 Frequencies --    113.5513               130.0269               147.2491
 Red. masses --      9.3152                 2.3411                 7.3268
 Frc consts  --      0.0708                 0.0233                 0.0936
 IR Inten    --      0.4905                 3.6793                 0.4639

                     19                     20                     21
                      A                      A                      A
 Frequencies --    162.0904               168.4108               172.7421
 Red. masses --      2.4339                 3.5040                 2.3384
 Frc consts  --      0.0377                 0.0586                 0.0411
 IR Inten    --      1.2348                 0.1564                 1.4688

                     22                     23                     24
                      A                      A                      A
 Frequencies --    186.6132               197.6744               203.4804
 Red. masses --      2.3728                 2.1596                 1.9525
 Frc consts  --      0.0487                 0.0497                 0.0476
 IR Inten    --      0.0722                 9.4727                 3.9163

                     25                     26                     27
                      A                      A                      A
 Frequencies --    218.1813               235.2173               237.4204
 Red. masses --      1.6310                 6.5410                 2.1767
 Frc consts  --      0.0457                 0.2132                 0.0723
 IR Inten    --      0.3357                 0.5339                 2.3528

                     28                     29                     30
                      A                      A                      A
 Frequencies --    244.5251               252.2141               267.8387
 Red. masses --      4.1883                 3.0981                 3.2490
 Frc consts  --      0.1475                 0.1161                 0.1373
 IR Inten    --      2.6157                 7.6699                10.2658

                     31                     32                     33
                      A                      A                      A
 Frequencies --    273.9047               283.7611               287.2810
 Red. masses --      8.9269                 6.0089                 9.7593
 Frc consts  --      0.3946                 0.2851                 0.4745
 IR Inten    --      5.2196                15.2474                 3.0280

                     34                     35                     36
                      A                      A                      A
 Frequencies --    291.1363               305.5316               324.8204
 Red. masses --      4.7809                 5.6800                 4.2753
 Frc consts  --      0.2388                 0.3124                 0.2658
 IR Inten    --      8.7590                 0.1151                 2.2673

                     37                     38                     39
                      A                      A                      A
 Frequencies --    333.5001               344.1200               355.3618
 Red. masses --      7.6506                 6.8585                 6.5001
 Frc consts  --      0.5013                 0.4785                 0.4836
 IR Inten    --      1.7292                 9.4801                17.5377

                     40                     41                     42
                      A                      A                      A
 Frequencies --    356.4536               399.2698               412.1320
 Red. masses --      4.9614                10.4668                 9.4251
 Frc consts  --      0.3714                 0.9831                 0.9432
 IR Inten    --      9.8817                13.9386                 8.8637

                     43                     44                     45
                      A                      A                      A
 Frequencies --    428.8571               441.1871               450.7071
 Red. masses --      2.3415                 5.9672                 9.1139
 Frc consts  --      0.2537                 0.6843                 1.0908
 IR Inten    --     10.3663                 6.6207                25.6837

                     46                     47                     48
                      A                      A                      A
 Frequencies --    462.4112               475.4449               480.2269
 Red. masses --      3.8622                 8.0709                11.7976
 Frc consts  --      0.4866                 1.0749                 1.6030
 IR Inten    --      7.5224                 8.0222                 1.9166

                     49                     50                     51
                      A                      A                      A
 Frequencies --    506.8120               514.1092               531.2885
 Red. masses --     10.5212                 6.1671                 4.5285
 Frc consts  --      1.5922                 0.9604                 0.7531
 IR Inten    --     51.2957                 6.7153                53.1555

                     52                     53                     54
                      A                      A                      A
 Frequencies --    547.6573               556.8256               561.7429
 Red. masses --     11.2031                 7.7923                 4.3500
 Frc consts  --      1.9797                 1.4235                 0.8087
 IR Inten    --     32.6147               159.1893                39.0610

                     55                     56                     57
                      A                      A                      A
 Frequencies --    581.5598               593.1925               627.5617
 Red. masses --      6.4947                 8.2972                 5.6557
 Frc consts  --      1.2942                 1.7202                 1.3123
 IR Inten    --     32.2409                 2.5364                 9.0929

                     58                     59                     60
                      A                      A                      A
 Frequencies --    648.5176               649.9231               658.4767
 Red. masses --      7.9894                 7.8406                13.1881
 Frc consts  --      1.9797                 1.9513                 3.3691
 IR Inten    --    118.4197                18.4657                47.5106

                     61                     62                     63
                      A                      A                      A
 Frequencies --    686.1037               690.9781               709.0378
 Red. masses --      2.8052                12.8257                 5.3634
 Frc consts  --      0.7780                 3.6079                 1.5887
 IR Inten    --     14.2753                 0.4303               286.4148

                     64                     65                     66
                      A                      A                      A
 Frequencies --    738.5912               795.8110               806.3200
 Red. masses --      7.1082                 4.9016                 6.4605
 Frc consts  --      2.2846                 1.8290                 2.4747
 IR Inten    --    298.5510                17.9046                22.6394

                     67                     68                     69
                      A                      A                      A
 Frequencies --    826.4444               844.4952               877.2404
 Red. masses --     12.0273                 4.3674                 1.5058
 Frc consts  --      4.8400                 1.8351                 0.6827
 IR Inten    --     36.1373                38.0590                67.3431

                     70                     71                     72
                      A                      A                      A
 Frequencies --    889.6162               908.6640               916.4998
 Red. masses --      3.2941                 1.3822                 1.3594
 Frc consts  --      1.5360                 0.6724                 0.6728
 IR Inten    --     37.4733                 0.5007                 7.7150

                     73                     74                     75
                      A                      A                      A
 Frequencies --    926.3070               937.7333               966.0987
 Red. masses --      5.2349                 4.5003                 4.3835
 Frc consts  --      2.6465                 2.3316                 2.4105
 IR Inten    --      9.4847                29.4321                47.0021

                     76                     77                     78
                      A                      A                      A
 Frequencies --    978.5273               989.8065              1008.0083
 Red. masses --      4.7794                 6.3961                 3.7190
 Frc consts  --      2.6963                 3.6921                 2.2264
 IR Inten    --     24.5576                 2.0949               138.7765

                     79                     80                     81
                      A                      A                      A
 Frequencies --   1047.8647              1069.9855              1079.4682
 Red. masses --      3.4665                11.8981                 5.3720
 Frc consts  --      2.2426                 8.0257                 3.6881
 IR Inten    --     28.3823                96.5637               314.5037

                     82                     83                     84
                      A                      A                      A
 Frequencies --   1082.9266              1087.3416              1088.7322
 Red. masses --      4.9514                 5.5265                 5.1448
 Frc consts  --      3.4212                 3.8497                 3.5930
 IR Inten    --    233.9624                48.9991               333.6843

                     85                     86                     87
                      A                      A                      A
 Frequencies --   1095.2251              1098.6031              1105.8178
 Red. masses --      7.3911                 4.2218                 3.8848
 Frc consts  --      5.2236                 3.0021                 2.7989
 IR Inten    --    276.9833                39.8217               184.4436

                     88                     89                     90
                      A                      A                      A
 Frequencies --   1107.7654              1110.6418              1113.6174
 Red. masses --      2.9204                 4.8681                 6.6139
 Frc consts  --      2.1115                 3.5380                 4.8326
 IR Inten    --    127.1962               341.6357               424.0203

                     91                     92                     93
                      A                      A                      A
 Frequencies --   1118.5709              1132.3123              1141.7546
 Red. masses --      4.2823                 4.5555                 3.0904
 Frc consts  --      3.1569                 3.4413                 2.3736
 IR Inten    --     26.5591               141.3907                70.0338

                     94                     95                     96
                      A                      A                      A
 Frequencies --   1152.5988              1161.6830              1165.7337
 Red. masses --      5.2271                 3.3477                 1.2668
 Frc consts  --      4.0913                 2.6618                 1.0143
 IR Inten    --    174.4802               165.8883                 0.6718

                     97                     98                     99
                      A                      A                      A
 Frequencies --   1169.2803              1171.3605              1176.4279
 Red. masses --      1.2587                 1.2932                 1.2743
 Frc consts  --      1.0139                 1.0454                 1.0391
 IR Inten    --      0.3093                 2.3834                 1.4704

                    100                    101                    102
                      A                      A                      A
 Frequencies --   1192.8520              1199.5844              1204.8146
 Red. masses --      1.3141                 1.3861                 1.4654
 Frc consts  --      1.1017                 1.1752                 1.2532
 IR Inten    --     18.0233                16.4480                 5.5887

                    103                    104                    105
                      A                      A                      A
 Frequencies --   1213.2598              1238.6035              1242.3527
 Red. masses --      1.5359                 3.1830                 1.6479
 Frc consts  --      1.3320                 2.8770                 1.4985
 IR Inten    --     11.1732               777.3417                 4.7631

                    106                    107                    108
                      A                      A                      A
 Frequencies --   1281.4861              1289.5400              1298.0352
 Red. masses --      1.3985                 2.6410                 2.1932
 Frc consts  --      1.3531                 2.5876                 2.1772
 IR Inten    --      1.8188               104.1458               114.2630

                    109                    110                    111
                      A                      A                      A
 Frequencies --   1307.1401              1320.1691              1325.4831
 Red. masses --      1.3586                 4.7866                 1.2300
 Frc consts  --      1.3677                 4.9151                 1.2732
 IR Inten    --      4.1115               170.9425                21.2238

                    112                    113                    114
                      A                      A                      A
 Frequencies --   1347.2643              1350.3066              1364.7748
 Red. masses --      1.1932                 1.1832                 4.9417
 Frc consts  --      1.2760                 1.2710                 5.4231
 IR Inten    --     19.3314                 9.8522                 0.0807

                    115                    116                    117
                      A                      A                      A
 Frequencies --   1368.1820              1372.8803              1387.7946
 Red. masses --      1.2675                 1.3985                 1.2514
 Frc consts  --      1.3980                 1.5530                 1.4201
 IR Inten    --      2.6158                 7.9475                 5.8700

                    118                    119                    120
                      A                      A                      A
 Frequencies --   1397.2707              1405.5110              1416.0663
 Red. masses --      1.3094                 1.2689                 1.2375
 Frc consts  --      1.5062                 1.4769                 1.4621
 IR Inten    --     24.3266                10.9535                17.1782

                    121                    122                    123
                      A                      A                      A
 Frequencies --   1446.1663              1458.7901              1460.6025
 Red. masses --      3.2997                 3.4769                 1.1017
 Frc consts  --      4.0660                 4.3594                 1.3848
 IR Inten    --      8.4799                 2.0922                 4.0143

                    124                    125                    126
                      A                      A                      A
 Frequencies --   1468.4648              1470.6046              1472.6701
 Red. masses --      1.1293                 1.1377                 1.1124
 Frc consts  --      1.4347                 1.4496                 1.4214
 IR Inten    --      0.6769                 1.2005                 5.9286

                    127                    128                    129
                      A                      A                      A
 Frequencies --   1477.2968              1481.0148              1481.5845
 Red. masses --      1.0610                 1.0654                 1.0514
 Frc consts  --      1.3642                 1.3768                 1.3598
 IR Inten    --      1.7771                 3.5608                 7.1004

                    130                    131                    132
                      A                      A                      A
 Frequencies --   1486.9068              1491.1809              1504.1668
 Red. masses --      1.1154                 1.1062                 1.0506
 Frc consts  --      1.4529                 1.4493                 1.4005
 IR Inten    --      3.1720                 6.0649                10.1165

                    133                    134                    135
                      A                      A                      A
 Frequencies --   1504.6616              1505.0466              1509.0443
 Red. masses --      1.0509                 1.0497                 1.0679
 Frc consts  --      1.4018                 1.4009                 1.4328
 IR Inten    --      9.3364                 4.3177                 7.3921

                    136                    137                    138
                      A                      A                      A
 Frequencies --   1599.0328              1620.8284              2929.0431
 Red. masses --      5.8444                 5.5376                 1.0805
 Frc consts  --      8.8045                 8.5714                 5.4616
 IR Inten    --      8.3973                12.4549                44.0010

                    139                    140                    141
                      A                      A                      A
 Frequencies --   2941.1247              2942.5377              2951.3731
 Red. masses --      1.0367                 1.0396                 1.0329
 Frc consts  --      5.2835                 5.3035                 5.3007
 IR Inten    --    131.0702                50.6750                86.9193

                    142                    143                    144
                      A                      A                      A
 Frequencies --   2954.9171              2979.4504              2981.7180
 Red. masses --      1.0327                 1.0829                 1.0741
 Frc consts  --      5.3125                 5.6640                 5.6265
 IR Inten    --     65.5023                25.4422                 6.2973

                    145                    146                    147
                      A                      A                      A
 Frequencies --   2991.6416              3003.1953              3006.2354
 Red. masses --      1.0704                 1.1050                 1.0845
 Frc consts  --      5.6446                 5.8718                 5.7745
 IR Inten    --     54.0986                78.8533                65.3331

                    148                    149                    150
                      A                      A                      A
 Frequencies --   3024.6318              3024.8538              3027.1415
 Red. masses --      1.1029                 1.1031                 1.0931
 Frc consts  --      5.9448                 5.9469                 5.9017
 IR Inten    --     15.1023               105.4086                56.8287

                    151                    152                    153
                      A                      A                      A
 Frequencies --   3066.1857              3070.9163              3071.6060
 Red. masses --      1.1011                 1.1039                 1.1035
 Frc consts  --      6.0990                 6.1334                 6.1341
 IR Inten    --     22.2168                56.8932                49.9458

                    154                    155                    156
                      A                      A                      A
 Frequencies --   3074.0194              3078.8790              3082.2923
 Red. masses --      1.1052                 1.0897                 1.0975
 Frc consts  --      6.1533                 6.0859                 6.1434
 IR Inten    --     44.9619                30.4430                28.0316

                    157                    158                    159
                      A                      A                      A
 Frequencies --   3179.8201              3181.3827              3194.7757
 Red. masses --      1.0917                 1.0917                 1.0916
 Frc consts  --      6.5034                 6.5098                 6.5642
 IR Inten    --      0.0170                 2.9544                 3.4833

 - Thermochemistry -
 -------------------
 Temperature   298.150 Kelvin.  Pressure   1.00000 Atm.
 Atom     1 has atomic number  6 and mass  12.00000

 Molecular mass:   512.09396 amu.
 Principal axes and moments of inertia in atomic units:
                           1         2         3
     Eigenvalues --  ******************************
           X            0.99995   0.00751   0.00672
           Y           -0.00826   0.99281   0.11938
           Z           -0.00577  -0.11943   0.99283
 This molecule is an asymmetric top.
 Rotational symmetry number  1.
 Warning -- assumption of classical behavior for rotation
           may cause significant error
 Rotational temperatures (Kelvin)      0.00715     0.00404     0.00396
 Rotational constants (GHZ):           0.14890     0.08427     0.08260
 Zero-point vibrational energy    1053663.7 (Joules/Mol)
                                  251.83167 (Kcal/Mol)
 Warning -- explicit consideration of  56 degrees of freedom as
           vibrations may cause significant error
 Vibrational temperatures:     16.36    18.91    28.98    35.64    51.38
          (Kelvin)             60.47    73.71    82.46    88.52   100.77
                              105.11   121.12   138.34   143.50   149.96
                              163.38   187.08   211.86   233.21   242.31
                              248.54   268.49   284.41   292.76   313.91
                              338.43   341.59   351.82   362.88   385.36
                              394.09   408.27   413.33   418.88   439.59
                              467.34   479.83   495.11   511.29   512.86
                              574.46   592.97   617.03   634.77   648.47
                              665.31   684.06   690.94   729.19   739.69
                              764.41   787.96   801.15   808.22   836.73
                              853.47   902.92   933.07   935.09   947.40
                              987.15   994.16  1020.15  1062.67  1144.99
                             1160.11  1189.07  1215.04  1262.15  1279.96
                             1307.36  1318.64  1332.75  1349.19  1390.00
                             1407.88  1424.11  1450.30  1507.64  1539.47
                             1553.11  1558.09  1564.44  1566.44  1575.78
                             1580.64  1591.03  1593.83  1597.97  1602.25
                             1609.37  1629.14  1642.73  1658.33  1671.40
                             1677.23  1682.33  1685.33  1692.62  1716.25
                             1725.93  1733.46  1745.61  1782.07  1787.47
                             1843.77  1855.36  1867.58  1880.68  1899.43
                             1907.07  1938.41  1942.79  1963.61  1968.51
                             1975.27  1996.73  2010.36  2022.22  2037.40
                             2080.71  2098.87  2101.48  2112.79  2115.87
                             2118.84  2125.50  2130.85  2131.67  2139.33
                             2145.48  2164.16  2164.87  2165.43  2171.18
                             2300.65  2332.01  4214.24  4231.62  4233.66
                             4246.37  4251.47  4286.76  4290.03  4304.30
                             4320.93  4325.30  4351.77  4352.09  4355.38
                             4411.56  4418.36  4419.36  4422.83  4429.82
                             4434.73  4575.05  4577.30  4596.57

 Zero-point correction=                           0.401319 (Hartree/Particle)
 Thermal correction to Energy=                    0.435339
 Thermal correction to Enthalpy=                  0.436283
 Thermal correction to Gibbs Free Energy=         0.331312
 Sum of electronic and zero-point Energies=          -2296.554149
 Sum of electronic and thermal Energies=             -2296.520129
 Sum of electronic and thermal Enthalpies=           -2296.519185
 Sum of electronic and thermal Free Energies=        -2296.624157

                     E (Thermal)             CV                S
                      KCal/Mol        Cal/Mol-Kelvin    Cal/Mol-Kelvin
 Total                  273.179            123.668            220.931
 Electronic               0.000              0.000              0.000
 Translational            0.889              2.981             44.587
 Rotational               0.889              2.981             36.982
 Vibrational            271.402            117.707            139.363
 Vibration     1          0.593              1.987              7.756
 Vibration     2          0.593              1.987              7.468
 Vibration     3          0.593              1.986              6.620
 Vibration     4          0.593              1.985              6.209
 Vibration     5          0.594              1.982              5.484
 Vibration     6          0.595              1.980              5.161
 Vibration     7          0.595              1.977              4.769
 Vibration     8          0.596              1.975              4.548
 Vibration     9          0.597              1.973              4.408
 Vibration    10          0.598              1.968              4.152
 Vibration    11          0.599              1.967              4.069
 Vibration    12          0.601              1.960              3.791
 Vibration    13          0.603              1.952              3.531
 Vibration    14          0.604              1.949              3.459
 Vibration    15          0.605              1.946              3.374
 Vibration    16          0.607              1.938              3.207
 Vibration    17          0.612              1.923              2.946
 Vibration    18          0.617              1.906              2.707
 Vibration    19          0.622              1.889              2.525
 Vibration    20          0.625              1.881              2.453
 Vibration    21          0.626              1.876              2.405
 Vibration    22          0.632              1.858              2.261
 Vibration    23          0.637              1.843              2.155
 Vibration    24          0.639              1.835              2.101
 Vibration    25          0.646              1.813              1.974
 Vibration    26          0.655              1.787              1.839
 Vibration    27          0.656              1.783              1.822
 Vibration    28          0.660              1.772              1.770
 Vibration    29          0.664              1.759              1.715
 Vibration    30          0.673              1.732              1.610
 Vibration    31          0.676              1.722              1.571
 Vibration    32          0.682              1.704              1.511
 Vibration    33          0.684              1.697              1.490
 Vibration    34          0.687              1.690              1.467
 Vibration    35          0.696              1.663              1.386
 Vibration    36          0.709              1.626              1.286
 Vibration    37          0.715              1.609              1.243
 Vibration    38          0.723              1.587              1.193
 Vibration    39          0.731              1.564              1.142
 Vibration    40          0.732              1.562              1.138
 Vibration    41          0.765              1.472              0.965
 Vibration    42          0.776              1.444              0.919
 Vibration    43          0.790              1.407              0.862
 Vibration    44          0.801              1.380              0.823
 Vibration    45          0.809              1.359              0.794
 Vibration    46          0.820              1.333              0.759
 Vibration    47          0.832              1.305              0.722
 Vibration    48          0.837              1.294              0.709
 Vibration    49          0.862              1.235              0.641
 Vibration    50          0.869              1.219              0.624
 Vibration    51          0.886              1.181              0.584
 Vibration    52          0.903              1.145              0.549
 Vibration    53          0.912              1.125              0.530
 Vibration    54          0.917              1.114              0.520
 Vibration    55          0.938              1.071              0.482
 Vibration    56          0.951              1.046              0.462

 Optimization completed on the basis of negligible forces.
    -- Stationary point found.
 Normal termination of Gaussian 16 at Mon Jun 10 06:41:49 2019.
