 Gaussian 16, Revision A.03,
 Gaussian 16:  AS64L-G16RevA.03 25-Dec-2016

 ----------------------------------------------------------------------
 #p opt freq=noraman pop=none 6-31g* scrf=(pcm,solvent=tetrahydrofuran)
  mpw3pbe
 ----------------------------------------------------------------------

 -----
 title
 -----
 Symbolic Z-matrix:
 Charge =  0 Multiplicity = 1

 SCF Done:  E(RmPW3PBE) =  -2296.79277397     A.U. after   13 cycles
 Optimization completed.
    -- Stationary point found.
 Normal termination of Gaussian 16 at Wed Jun  5 18:30:42 2019.

 ----------------------------------------------------------------------
 #P Geom=AllCheck Guess=TCheck SCRF=Check GenChk RmPW3PBE/6-31G(d) Freq
 ----------------------------------------------------------------------

 Structure from the checkpoint file:  "/scratch/users/ekwan/clay_new-glu_gluC6-bisCF3-sm-mpw3pbe-631gd-pcm_thf/Gau-7801.chk"
 -----
 title
 -----
 Charge =  0 Multiplicity = 1

                         Standard orientation:
 ---------------------------------------------------------------------
 Center     Atomic      Atomic             Coordinates (Angstroms)
 Number     Number       Type             X           Y           Z
 ---------------------------------------------------------------------
      1          6           0        3.524033   -0.222190    0.718138
      2          6           0        3.344591   -0.503760   -0.773583
      3          6           0        1.868126   -0.388198   -1.184456
      4          6           0        1.369585    1.096061    0.615150
      5          6           0        2.822302    1.081530    1.096413
      6          1           0        1.743036   -0.450068   -2.267166
      7          1           0        3.876331    0.285350   -1.331952
      8          1           0        3.074334   -1.042043    1.298069
      9          1           0        0.807171    0.329257    1.168558
     10          1           0        3.352244    1.920111    0.623543
     11          8           0        1.292199    0.806939   -0.791987
     12          8           0        1.188059   -1.525306   -0.585398
     13          8           0        3.886794   -1.764114   -1.068824
     14          8           0        4.893086   -0.085237    1.040041
     15          8           0        2.800728    1.233651    2.501781
     16          6           0        0.685435    2.433915    0.864593
     17          1           0        0.588132    2.545749    1.949145
     18          1           0       -0.323464    2.410206    0.426925
     19          8           0        1.400940    3.560800    0.411023
     20         16           0       -0.106137   -2.158970   -1.339371
     21          8           0       -0.203040   -3.512975   -0.823503
     22          8           0        0.005956   -1.893617   -2.768704
     23          6           0       -1.472840   -1.213008   -0.698073
     24          6           0       -2.136393   -1.673195    0.434439
     25          6           0       -1.845258   -0.038091   -1.343758
     26          6           0       -3.201458   -0.925880    0.932336
     27          1           0       -1.830950   -2.599307    0.910169
     28          6           0       -2.904925    0.699096   -0.822925
     29          1           0       -1.323593    0.291402   -2.235525
     30          6           0       -3.585412    0.260286    0.311407
     31          1           0       -4.413575    0.838820    0.707259
     32          6           0        4.182076   -1.971112   -2.438355
     33          1           0        3.274975   -2.044327   -3.054258
     34          1           0        4.818983   -1.167197   -2.835204
     35          1           0        4.721549   -2.919026   -2.501767
     36          6           0        5.494358   -1.252881    1.570367
     37          1           0        6.532159   -0.993273    1.797575
     38          1           0        4.996695   -1.569721    2.498808
     39          1           0        5.475081   -2.080557    0.852580
     40          6           0        3.713942    2.197497    2.996200
     41          1           0        3.590445    2.217074    4.082706
     42          1           0        4.748769    1.928718    2.753334
     43          1           0        3.494358    3.196536    2.593461
     44          6           0        1.202941    3.878601   -0.954643
     45          1           0        1.643506    4.866875   -1.114549
     46          1           0        0.131040    3.922022   -1.198838
     47          1           0        1.684685    3.155878   -1.623943
     48          6           0       -3.979342   -1.437194    2.116564
     49          9           0       -3.202598   -2.156345    2.943098
     50          9           0       -4.991901   -2.233434    1.727180
     51          9           0       -4.515226   -0.430460    2.826533
     52          6           0       -3.276149    2.012778   -1.457188
     53          9           0       -2.580192    3.030889   -0.905595
     54          9           0       -4.578035    2.293954   -1.294142
     55          9           0       -3.011510    2.021439   -2.772650
 ---------------------------------------------------------------------

 SCF Done:  E(RmPW3PBE) =  -2296.79277397     A.U. after    1 cycles

 Isotropic polarizability for W=    0.000000      275.25 Bohr**3.
 End of Minotr F.D. properties file   721 does not exist.

                      1                      2                      3
                      A                      A                      A
 Frequencies --     11.9976                15.3674                20.5599
 Red. masses --      9.2339                 6.2720                16.9915
 Frc consts  --      0.0008                 0.0009                 0.0042
 IR Inten    --      0.1248                 0.3174                 0.0084

                      4                      5                      6
                      A                      A                      A
 Frequencies --     24.1041                28.1938                32.5703
 Red. masses --     11.6214                 3.3654                 4.1092
 Frc consts  --      0.0040                 0.0016                 0.0026
 IR Inten    --      0.0140                 1.5583                 1.9820

                      7                      8                      9
                      A                      A                      A
 Frequencies --     43.2873                46.7602                50.6288
 Red. masses --      4.6145                 3.6333                 5.0374
 Frc consts  --      0.0051                 0.0047                 0.0076
 IR Inten    --      1.2458                 1.7357                 0.8769

                     10                     11                     12
                      A                      A                      A
 Frequencies --     61.6873                66.8371                78.8253
 Red. masses --      3.2414                 3.9136                 3.4332
 Frc consts  --      0.0073                 0.0103                 0.0126
 IR Inten    --      7.4372                 0.5614                 0.9486

                     13                     14                     15
                      A                      A                      A
 Frequencies --     81.6858                99.0929               100.3651
 Red. masses --      2.7393                11.3464                 7.3903
 Frc consts  --      0.0108                 0.0656                 0.0439
 IR Inten    --      4.7414                 2.4704                 4.0930

                     16                     17                     18
                      A                      A                      A
 Frequencies --    108.7237               115.7373               148.7508
 Red. masses --      2.6368                 6.4173                 7.4421
 Frc consts  --      0.0184                 0.0506                 0.0970
 IR Inten    --      2.4221                 2.0532                 0.1472

                     19                     20                     21
                      A                      A                      A
 Frequencies --    152.5403               159.5134               166.4634
 Red. masses --      1.4057                 1.9026                 2.6908
 Frc consts  --      0.0193                 0.0285                 0.0439
 IR Inten    --      0.1540                 0.5141                 0.9046

                     22                     23                     24
                      A                      A                      A
 Frequencies --    176.8252               183.4550               191.0273
 Red. masses --      1.6833                 3.1239                 2.1096
 Frc consts  --      0.0310                 0.0619                 0.0454
 IR Inten    --      2.3063                 4.6042                 1.7855

                     25                     26                     27
                      A                      A                      A
 Frequencies --    195.9349               222.6258               235.1792
 Red. masses --      1.8440                 3.0067                12.0404
 Frc consts  --      0.0417                 0.0878                 0.3924
 IR Inten    --      0.3024                12.2251                 0.1612

                     28                     29                     30
                      A                      A                      A
 Frequencies --    243.3484               253.5741               256.5942
 Red. masses --      3.8251                 3.5521                 6.8389
 Frc consts  --      0.1335                 0.1346                 0.2653
 IR Inten    --      6.2956                10.0270                10.1287

                     31                     32                     33
                      A                      A                      A
 Frequencies --    280.4237               284.8366               289.7715
 Red. masses --     10.4448                 4.9576                 9.2332
 Frc consts  --      0.4839                 0.2370                 0.4568
 IR Inten    --      3.1578                 9.5045                 7.3467

                     34                     35                     36
                      A                      A                      A
 Frequencies --    292.0586               311.0566               321.6253
 Red. masses --      9.1178                 5.4893                 4.0618
 Frc consts  --      0.4582                 0.3129                 0.2476
 IR Inten    --      7.5808                 0.1562                 5.0080

                     37                     38                     39
                      A                      A                      A
 Frequencies --    342.6636               350.8039               356.6808
 Red. masses --      7.1432                 6.6401                 4.7772
 Frc consts  --      0.4942                 0.4815                 0.3581
 IR Inten    --      0.6693                 3.4066                 6.3979

                     40                     41                     42
                      A                      A                      A
 Frequencies --    365.5826               411.1053               418.7066
 Red. masses --      9.4521                10.1033                 8.7565
 Frc consts  --      0.7443                 1.0060                 0.9045
 IR Inten    --     14.3104                14.5348                 6.3005

                     43                     44                     45
                      A                      A                      A
 Frequencies --    439.2046               451.3338               461.6511
 Red. masses --      2.1168                 5.2779                 8.6365
 Frc consts  --      0.2406                 0.6334                 1.0845
 IR Inten    --      6.3501                12.0954                14.3983

                     46                     47                     48
                      A                      A                      A
 Frequencies --    470.1349               493.4365               499.0932
 Red. masses --      4.2184                 7.6636                11.9370
 Frc consts  --      0.5493                 1.0994                 1.7519
 IR Inten    --      8.7225                19.0735                 0.9135

                     49                     50                     51
                      A                      A                      A
 Frequencies --    522.0357               528.9564               539.7614
 Red. masses --      4.7532                10.8790                 4.7656
 Frc consts  --      0.7632                 1.7934                 0.8180
 IR Inten    --     37.7528                29.5118                12.5620

                     52                     53                     54
                      A                      A                      A
 Frequencies --    567.0457               568.6444               579.1967
 Red. masses --      3.7739                15.0306                11.5814
 Frc consts  --      0.7150                 2.8636                 2.2891
 IR Inten    --     37.1299                27.1115               259.4949

                     55                     56                     57
                      A                      A                      A
 Frequencies --    603.3512               612.5591               630.2295
 Red. masses --      6.8795                 8.1004                 5.6086
 Frc consts  --      1.4755                 1.7908                 1.3125
 IR Inten    --     38.8572                 1.8471                 9.9285

                     58                     59                     60
                      A                      A                      A
 Frequencies --    674.8613               679.8402               684.1561
 Red. masses --      7.5887                12.4572                 6.1342
 Frc consts  --      2.0363                 3.3922                 1.6917
 IR Inten    --      1.0188                59.9956                41.3069

                     61                     62                     63
                      A                      A                      A
 Frequencies --    706.8266               718.8266               733.1912
 Red. masses --      2.5733                 9.0951                 5.6639
 Frc consts  --      0.7575                 2.7689                 1.7939
 IR Inten    --     27.4719                 6.6230                71.0981

                     64                     65                     66
                      A                      A                      A
 Frequencies --    817.0407               843.6961               847.5794
 Red. masses --      8.0197                 3.5648                11.8844
 Frc consts  --      3.1542                 1.4951                 5.0302
 IR Inten    --    406.0628                86.6861               202.2293

                     67                     68                     69
                      A                      A                      A
 Frequencies --    863.8872               886.9268               909.6939
 Red. masses --     11.9592                 3.8141                 1.5841
 Frc consts  --      5.2586                 1.7677                 0.7723
 IR Inten    --     23.3070                54.7525                73.5245

                     70                     71                     72
                      A                      A                      A
 Frequencies --    935.1141               941.0684               955.2262
 Red. masses --      2.7228                 1.4129                 1.3730
 Frc consts  --      1.4028                 0.7372                 0.7381
 IR Inten    --     22.0353                 4.4041                 8.6116

                     73                     74                     75
                      A                      A                      A
 Frequencies --    979.3405               988.0744              1012.5247
 Red. masses --      4.7613                 4.1526                 6.2662
 Frc consts  --      2.6905                 2.3886                 3.7850
 IR Inten    --     11.9243                46.5702                 5.8329

                     76                     77                     78
                      A                      A                      A
 Frequencies --   1019.4801              1035.0371              1050.4623
 Red. masses --      4.0284                 4.1209                 3.6146
 Frc consts  --      2.4668                 2.6011                 2.3500
 IR Inten    --     44.7044                12.3805               129.0174

                     79                     80                     81
                      A                      A                      A
 Frequencies --   1091.7423              1121.2704              1125.1193
 Red. masses --      2.9963                 9.5254                 2.8363
 Frc consts  --      2.1041                 7.0560                 2.1154
 IR Inten    --     15.4026                59.9550               103.3144

                     82                     83                     84
                      A                      A                      A
 Frequencies --   1132.7651              1135.2437              1137.7038
 Red. masses --      2.1868                 2.3908                 1.8803
 Frc consts  --      1.6532                 1.8154                 1.4340
 IR Inten    --     76.8673                 8.9023                24.7994

                     85                     86                     87
                      A                      A                      A
 Frequencies --   1145.7979              1165.2404              1167.8828
 Red. masses --      2.7652                 3.9260                 5.0333
 Frc consts  --      2.1389                 3.1408                 4.0448
 IR Inten    --    203.5298                30.3912               451.3437

                     88                     89                     90
                      A                      A                      A
 Frequencies --   1170.8791              1179.5587              1180.6449
 Red. masses --      3.5910                 1.5243                 5.0754
 Frc consts  --      2.9006                 1.2496                 4.1683
 IR Inten    --    326.3286                82.0964               314.3556

                     91                     92                     93
                      A                      A                      A
 Frequencies --   1181.7218              1183.6095              1187.5397
 Red. masses --      1.3195                 1.5078                 1.3256
 Frc consts  --      1.0857                 1.2445                 1.1015
 IR Inten    --     18.0688                 9.9887                 5.8588

                     94                     95                     96
                      A                      A                      A
 Frequencies --   1190.5248              1195.6313              1197.6649
 Red. masses --      1.9513                12.0936                 3.0314
 Frc consts  --      1.6295                10.1859                 2.5619
 IR Inten    --     44.2337               330.6104               133.4802

                     97                     98                     99
                      A                      A                      A
 Frequencies --   1206.3521              1213.6541              1223.5721
 Red. masses --      4.4753                 1.5381                 2.1051
 Frc consts  --      3.8373                 1.3348                 1.8568
 IR Inten    --    174.9236                95.8118                56.8594

                    100                    101                    102
                      A                      A                      A
 Frequencies --   1223.7284              1228.8956              1234.3586
 Red. masses --      3.6101                 7.1250                 1.9265
 Frc consts  --      3.1852                 6.3397                 1.7294
 IR Inten    --    151.6965               274.6521                14.7587

                    103                    104                    105
                      A                      A                      A
 Frequencies --   1238.5069              1265.0336              1292.6110
 Red. masses --      1.8119                 1.8216                 2.9978
 Frc consts  --      1.6375                 1.7175                 2.9511
 IR Inten    --     53.7323                 9.3087               722.7261

                    106                    107                    108
                      A                      A                      A
 Frequencies --   1302.6210              1306.4765              1338.6597
 Red. masses --      1.4782                 1.3864                 1.3988
 Frc consts  --      1.4778                 1.3942                 1.4769
 IR Inten    --      3.7319                81.6911                 1.3449

                    109                    110                    111
                      A                      A                      A
 Frequencies --   1343.7565              1360.5429              1367.8182
 Red. masses --      1.2548                 5.3486                 1.2436
 Frc consts  --      1.3350                 5.8333                 1.3708
 IR Inten    --     14.2148               241.5073                15.9281

                    112                    113                    114
                      A                      A                      A
 Frequencies --   1370.1456              1383.1213              1389.4024
 Red. masses --      1.3360                 6.3596                 1.3389
 Frc consts  --      1.4778                 7.1681                 1.5228
 IR Inten    --     52.5771               182.3475                 0.8157

                    115                    116                    117
                      A                      A                      A
 Frequencies --   1397.1650              1400.6909              1412.4320
 Red. masses --      3.2853                 1.9195                 1.3223
 Frc consts  --      3.7785                 2.2188                 1.5542
 IR Inten    --      2.7514                18.0631                 7.5911

                    118                    119                    120
                      A                      A                      A
 Frequencies --   1423.3403              1429.4575              1441.0624
 Red. masses --      1.4420                 1.3155                 1.3632
 Frc consts  --      1.7212                 1.5838                 1.6679
 IR Inten    --     35.1519                10.0373                13.2382

                    121                    122                    123
                      A                      A                      A
 Frequencies --   1482.2376              1488.5867              1490.7406
 Red. masses --      1.0906                 1.1718                 1.1668
 Frc consts  --      1.4117                 1.5298                 1.5278
 IR Inten    --      3.5902                 0.5072                 1.2734

                    124                    125                    126
                      A                      A                      A
 Frequencies --   1493.3511              1494.5044              1501.7997
 Red. masses --      3.9428                 1.1222                 1.0523
 Frc consts  --      5.1806                 1.4767                 1.3984
 IR Inten    --      2.9808                 6.9507                 3.4944

                    127                    128                    129
                      A                      A                      A
 Frequencies --   1502.2642              1503.3093              1503.5236
 Red. masses --      1.0800                 3.9979                 1.0601
 Frc consts  --      1.4361                 5.3233                 1.4120
 IR Inten    --     14.9260                 0.5887                 1.5289

                    130                    131                    132
                      A                      A                      A
 Frequencies --   1508.3784              1513.2952              1522.8938
 Red. masses --      1.1273                 1.0854                 1.0538
 Frc consts  --      1.5112                 1.4645                 1.4400
 IR Inten    --      1.5999                 4.6403                13.6874

                    133                    134                    135
                      A                      A                      A
 Frequencies --   1528.9367              1529.5302              1531.4773
 Red. masses --      1.0499                 1.0480                 1.0572
 Frc consts  --      1.4460                 1.4445                 1.4609
 IR Inten    --      9.5382                 8.4101                10.9426

                    136                    137                    138
                      A                      A                      A
 Frequencies --   1662.3282              1683.2314              3010.6678
 Red. masses --      6.6265                 6.3438                 1.0816
 Frc consts  --     10.7887                10.5898                 5.7764
 IR Inten    --     17.7741                21.6607                27.0304

                    139                    140                    141
                      A                      A                      A
 Frequencies --   3023.7908              3027.4660              3028.0532
 Red. masses --      1.0358                 1.0391                 1.0370
 Frc consts  --      5.5801                 5.6112                 5.6024
 IR Inten    --     75.7086                85.9901                42.3186

                    142                    143                    144
                      A                      A                      A
 Frequencies --   3031.7065              3042.2812              3044.9212
 Red. masses --      1.0357                 1.0737                 1.0829
 Frc consts  --      5.6085                 5.8551                 5.9155
 IR Inten    --     68.5501                11.3004                19.4497

                    145                    146                    147
                      A                      A                      A
 Frequencies --   3051.8671              3066.6866              3086.6380
 Red. masses --      1.0746                 1.0848                 1.1060
 Frc consts  --      5.8971                 6.0107                 6.2084
 IR Inten    --     43.1028                63.6833                60.7742

                    148                    149                    150
                      A                      A                      A
 Frequencies --   3103.2903              3108.5078              3109.7651
 Red. masses --      1.0994                 1.1017                 1.0966
 Frc consts  --      6.2380                 6.2723                 6.2480
 IR Inten    --     46.8308                54.9684                43.7191

                    151                    152                    153
                      A                      A                      A
 Frequencies --   3131.2736              3150.1069              3152.8850
 Red. masses --      1.0991                 1.1034                 1.0881
 Frc consts  --      6.3492                 6.4514                 6.3727
 IR Inten    --     19.4838                43.6598                13.6144

                    154                    155                    156
                      A                      A                      A
 Frequencies --   3153.6609              3154.8264              3162.5600
 Red. masses --      1.1036                 1.1045                 1.0998
 Frc consts  --      6.4668                 6.4770                 6.4808
 IR Inten    --     34.6754                34.6366                27.5715

                    157                    158                    159
                      A                      A                      A
 Frequencies --   3247.5950              3249.6371              3254.9335
 Red. masses --      1.0922                 1.0922                 1.0921
 Frc consts  --      6.7870                 6.7953                 6.8173
 IR Inten    --      1.3959                 7.1281                 5.2645

 - Thermochemistry -
 -------------------
 Temperature   298.150 Kelvin.  Pressure   1.00000 Atm.
 Atom     1 has atomic number  6 and mass  12.00000

 Molecular mass:   512.09396 amu.
 Principal axes and moments of inertia in atomic units:
                           1         2         3
     Eigenvalues --  ******************************
           X            0.99994  -0.00055   0.01060
           Y           -0.00033   0.99656   0.08292
           Z           -0.01061  -0.08291   0.99650
 This molecule is an asymmetric top.
 Rotational symmetry number  1.
 Warning -- assumption of classical behavior for rotation
           may cause significant error
 Rotational temperatures (Kelvin)      0.00726     0.00386     0.00356
 Rotational constants (GHZ):           0.15122     0.08053     0.07424
 Zero-point vibrational energy    1081810.0 (Joules/Mol)
                                  258.55880 (Kcal/Mol)
 Warning -- explicit consideration of  56 degrees of freedom as
           vibrations may cause significant error
 Vibrational temperatures:     17.26    22.11    29.58    34.68    40.56
          (Kelvin)             46.86    62.28    67.28    72.84    88.75
                               96.16   113.41   117.53   142.57   144.40
                              156.43   166.52   214.02   219.47   229.50
                              239.50   254.41   263.95   274.85   281.91
                              320.31   338.37   350.12   364.84   369.18
                              403.47   409.82   416.92   420.21   447.54
                              462.75   493.02   504.73   513.18   525.99
                              591.49   602.43   631.92   649.37   664.21
                              676.42   709.95   718.08   751.09   761.05
                              776.60   815.85   818.15   833.33   868.09
                              881.34   906.76   970.97   978.14   984.35
                             1016.97  1034.23  1054.90  1175.54  1213.89
                             1219.48  1242.94  1276.09  1308.85  1345.42
                             1353.99  1374.36  1409.05  1421.62  1456.80
                             1466.80  1489.19  1511.38  1570.77  1613.26
                             1618.80  1629.80  1633.36  1636.90  1648.55
                             1676.52  1680.32  1684.63  1697.12  1698.68
                             1700.23  1702.95  1708.60  1712.90  1720.25
                             1723.17  1735.67  1746.18  1760.45  1760.67
                             1768.11  1775.97  1781.94  1820.10  1859.78
                             1874.18  1879.73  1926.03  1933.37  1957.52
                             1967.99  1971.33  1990.00  1999.04  2010.21
                             2015.28  2032.17  2047.87  2056.67  2073.37
                             2132.61  2141.74  2144.84  2148.60  2150.26
                             2160.75  2161.42  2162.93  2163.24  2170.22
                             2177.29  2191.10  2199.80  2200.65  2203.45
                             2391.72  2421.79  4331.68  4350.56  4355.85
                             4356.69  4361.95  4377.16  4380.96  4390.96
                             4412.28  4440.98  4464.94  4472.45  4474.26
                             4505.20  4532.30  4536.30  4537.41  4539.09
                             4550.22  4672.56  4675.50  4683.12

 Zero-point correction=                           0.412040 (Hartree/Particle)
 Thermal correction to Energy=                    0.445897
 Thermal correction to Enthalpy=                  0.446841
 Thermal correction to Gibbs Free Energy=         0.340695
 Sum of electronic and zero-point Energies=          -2296.380734
 Sum of electronic and thermal Energies=             -2296.346877
 Sum of electronic and thermal Enthalpies=           -2296.345933
 Sum of electronic and thermal Free Energies=        -2296.452079

                     E (Thermal)             CV                S
                      KCal/Mol        Cal/Mol-Kelvin    Cal/Mol-Kelvin
 Total                  279.805            120.873            223.404
 Electronic               0.000              0.000              0.000
 Translational            0.889              2.981             44.587
 Rotational               0.889              2.981             37.117
 Vibrational            278.027            114.911            141.700
 Vibration     1          0.593              1.987              7.649
 Vibration     2          0.593              1.986              7.157
 Vibration     3          0.593              1.986              6.579
 Vibration     4          0.593              1.985              6.264
 Vibration     5          0.593              1.984              5.953
 Vibration     6          0.594              1.983              5.666
 Vibration     7          0.595              1.980              5.103
 Vibration     8          0.595              1.979              4.950
 Vibration     9          0.595              1.977              4.793
 Vibration    10          0.597              1.973              4.402
 Vibration    11          0.598              1.970              4.244
 Vibration    12          0.600              1.963              3.920
 Vibration    13          0.600              1.962              3.850
 Vibration    14          0.604              1.950              3.472
 Vibration    15          0.604              1.949              3.447
 Vibration    16          0.606              1.942              3.292
 Vibration    17          0.608              1.936              3.170
 Vibration    18          0.618              1.904              2.688
 Vibration    19          0.619              1.900              2.640
 Vibration    20          0.621              1.892              2.556
 Vibration    21          0.624              1.884              2.475
 Vibration    22          0.628              1.871              2.362
 Vibration    23          0.631              1.862              2.293
 Vibration    24          0.634              1.852              2.218
 Vibration    25          0.636              1.846              2.171
 Vibration    26          0.648              1.807              1.938
 Vibration    27          0.655              1.787              1.839
 Vibration    28          0.659              1.774              1.778
 Vibration    29          0.665              1.757              1.706
 Vibration    30          0.666              1.752              1.685
 Vibration    31          0.680              1.710              1.531
 Vibration    32          0.683              1.702              1.504
 Vibration    33          0.686              1.693              1.475
 Vibration    34          0.687              1.689              1.462
 Vibration    35          0.700              1.653              1.357
 Vibration    36          0.707              1.632              1.302
 Vibration    37          0.722              1.590              1.200
 Vibration    38          0.728              1.574              1.163
 Vibration    39          0.732              1.562              1.137
 Vibration    40          0.739              1.543              1.098
 Vibration    41          0.775              1.446              0.923
 Vibration    42          0.782              1.430              0.896
 Vibration    43          0.799              1.385              0.829
 Vibration    44          0.810              1.358              0.792
 Vibration    45          0.819              1.335              0.761
 Vibration    46          0.827              1.316              0.737
 Vibration    47          0.849              1.265              0.675
 Vibration    48          0.855              1.252              0.660
 Vibration    49          0.877              1.201              0.605
 Vibration    50          0.884              1.186              0.590
 Vibration    51          0.895              1.162              0.566
 Vibration    52          0.923              1.103              0.510
 Vibration    53          0.925              1.099              0.507
 Vibration    54          0.936              1.076              0.487
 Vibration    55          0.962              1.025              0.444
 Vibration    56          0.972              1.005              0.429

                           ! Non-Optimized Parameters !
 Normal termination of Gaussian 16 at Wed Jun  5 19:11:53 2019.
