 Gaussian 16, Revision A.03,
 Gaussian 16:  AS64L-G16RevA.03 25-Dec-2016

 ----------------------------------------------------------------------
 #p opt freq=noraman pop=none 6-31g* scrf=(pcm,solvent=tetrahydrofuran)
  mpw1lyp
 ----------------------------------------------------------------------

 -----
 title
 -----
 Symbolic Z-matrix:
 Charge =  0 Multiplicity = 1

 SCF Done:  E(RmPW1LYP) =  -2297.33770417     A.U. after   13 cycles
 Optimization completed.
    -- Stationary point found.
 Normal termination of Gaussian 16 at Wed Jun  5 18:21:04 2019.

 ----------------------------------------------------------------------
 #P Geom=AllCheck Guess=TCheck SCRF=Check GenChk RmPW1LYP/6-31G(d) Freq
 ----------------------------------------------------------------------

 Structure from the checkpoint file:  "/scratch/users/ekwan/clay_new-glu_gluC6-bisCF3-sm-mpw1lyp-631gd-pcm_thf/Gau-37631.chk"
 -----
 title
 -----
 Charge =  0 Multiplicity = 1

                         Standard orientation:
 ---------------------------------------------------------------------
 Center     Atomic      Atomic             Coordinates (Angstroms)
 Number     Number       Type             X           Y           Z
 ---------------------------------------------------------------------
      1          6           0        3.550334   -0.226452    0.730611
      2          6           0        3.341733   -0.562610   -0.750839
      3          6           0        1.857880   -0.446724   -1.149711
      4          6           0        1.390253    1.097894    0.628041
      5          6           0        2.856111    1.094175    1.080742
      6          1           0        1.721775   -0.531910   -2.225874
      7          1           0        3.873738    0.194482   -1.346657
      8          1           0        3.116914   -1.024387    1.346986
      9          1           0        0.837344    0.350390    1.210672
     10          1           0        3.377697    1.913971    0.574280
     11          8           0        1.289981    0.763093   -0.775608
     12          8           0        1.168083   -1.570277   -0.516603
     13          8           0        3.867881   -1.844704   -1.005357
     14          8           0        4.931087   -0.075852    1.019947
     15          8           0        2.860743    1.292192    2.486318
     16          6           0        0.708327    2.447095    0.842900
     17          1           0        0.641655    2.604291    1.921987
     18          1           0       -0.308751    2.408841    0.433370
     19          8           0        1.416291    3.556938    0.321224
     20         16           0       -0.131744   -2.228214   -1.250060
     21          8           0       -0.245653   -3.558806   -0.674628
     22          8           0       -0.003940   -2.032130   -2.691639
     23          6           0       -1.499130   -1.235528   -0.662673
     24          6           0       -2.221545   -1.670912    0.444585
     25          6           0       -1.805809   -0.046709   -1.320307
     26          6           0       -3.278318   -0.885373    0.903326
     27          1           0       -1.967279   -2.603284    0.931949
     28          6           0       -2.854869    0.731109   -0.835720
     29          1           0       -1.241851    0.266648   -2.188673
     30          6           0       -3.594050    0.316543    0.272069
     31          1           0       -4.410831    0.925436    0.638644
     32          6           0        4.114881   -2.130277   -2.376814
     33          1           0        3.185966   -2.234565   -2.950756
     34          1           0        4.735788   -1.351604   -2.838481
     35          1           0        4.650562   -3.080049   -2.404409
     36          6           0        5.563388   -1.229889    1.560563
     37          1           0        6.596819   -0.946709    1.770587
     38          1           0        5.082290   -1.541182    2.497229
     39          1           0        5.549092   -2.064896    0.854567
     40          6           0        3.798522    2.259324    2.944728
     41          1           0        3.684095    2.313882    4.029279
     42          1           0        4.823654    1.964804    2.700326
     43          1           0        3.590734    3.246343    2.512201
     44          6           0        1.172956    3.835298   -1.052655
     45          1           0        1.608173    4.816386   -1.254344
     46          1           0        0.095632    3.870719   -1.261588
     47          1           0        1.633492    3.092187   -1.711257
     48          6           0       -4.119769   -1.366234    2.057535
     49          9           0       -3.414333   -2.152179    2.892097
     50          9           0       -5.176122   -2.087536    1.629366
     51          9           0       -4.608774   -0.336665    2.775084
     52          6           0       -3.145459    2.063471   -1.474885
     53          9           0       -2.423459    3.052144   -0.891632
     54          9           0       -4.440450    2.404872   -1.355458
     55          9           0       -2.832107    2.069673   -2.782491
 ---------------------------------------------------------------------

 SCF Done:  E(RmPW1LYP) =  -2297.33770417     A.U. after    1 cycles

 Isotropic polarizability for W=    0.000000      273.42 Bohr**3.
 End of Minotr F.D. properties file   721 does not exist.

                      1                      2                      3
                      A                      A                      A
 Frequencies --      9.5412                16.8622                18.3190
 Red. masses --      9.3872                11.5551                 7.8135
 Frc consts  --      0.0005                 0.0019                 0.0015
 IR Inten    --      0.1271                 0.1176                 0.3200

                      4                      5                      6
                      A                      A                      A
 Frequencies --     24.5999                34.8284                43.8124
 Red. masses --     11.7823                 4.3556                 5.6287
 Frc consts  --      0.0042                 0.0031                 0.0064
 IR Inten    --      0.0178                 0.1936                 0.7558

                      7                      8                      9
                      A                      A                      A
 Frequencies --     51.0964                55.1114                62.3567
 Red. masses --      4.2417                 4.0808                 4.3465
 Frc consts  --      0.0065                 0.0073                 0.0100
 IR Inten    --      1.9254                 2.4010                 1.0156

                     10                     11                     12
                      A                      A                      A
 Frequencies --     71.0378                73.3740                84.2638
 Red. masses --      3.2113                 3.7527                 3.4312
 Frc consts  --      0.0095                 0.0119                 0.0144
 IR Inten    --      5.9560                 0.6568                 2.1794

                     13                     14                     15
                      A                      A                      A
 Frequencies --     87.2085               100.5264               102.9705
 Red. masses --      2.5822                 9.9703                 6.6716
 Frc consts  --      0.0116                 0.0594                 0.0417
 IR Inten    --      5.4116                 3.4676                 3.9945

                     16                     17                     18
                      A                      A                      A
 Frequencies --    114.2431               118.5882               151.8588
 Red. masses --      3.7957                 3.7940                 7.3313
 Frc consts  --      0.0292                 0.0314                 0.0996
 IR Inten    --      2.2653                 3.0132                 0.2046

                     19                     20                     21
                      A                      A                      A
 Frequencies --    157.2986               164.5733               170.1545
 Red. masses --      1.3089                 2.3713                 2.5261
 Frc consts  --      0.0191                 0.0378                 0.0431
 IR Inten    --      0.4194                 0.3567                 1.1512

                     22                     23                     24
                      A                      A                      A
 Frequencies --    177.4999               187.7590               193.8168
 Red. masses --      1.7940                 3.2121                 1.9698
 Frc consts  --      0.0333                 0.0667                 0.0436
 IR Inten    --      2.2765                 4.2245                 2.7290

                     25                     26                     27
                      A                      A                      A
 Frequencies --    202.0607               226.0203               239.3589
 Red. masses --      1.6809                 2.8043                11.9809
 Frc consts  --      0.0404                 0.0844                 0.4044
 IR Inten    --      0.2212                12.1678                 0.4166

                     28                     29                     30
                      A                      A                      A
 Frequencies --    246.2981               255.9045               257.4926
 Red. masses --      4.1911                 3.5762                 5.9208
 Frc consts  --      0.1498                 0.1380                 0.2313
 IR Inten    --      4.6093                10.6067                 9.8050

                     31                     32                     33
                      A                      A                      A
 Frequencies --    282.1866               288.1706               292.4540
 Red. masses --     10.0268                 5.2464                 9.8432
 Frc consts  --      0.4704                 0.2567                 0.4960
 IR Inten    --      3.0637                12.5227                 3.8926

                     34                     35                     36
                      A                      A                      A
 Frequencies --    293.8131               316.8057               324.0793
 Red. masses --      8.5110                 5.4767                 4.1130
 Frc consts  --      0.4329                 0.3239                 0.2545
 IR Inten    --      8.7583                 0.2872                 4.7310

                     37                     38                     39
                      A                      A                      A
 Frequencies --    343.5239               351.8522               359.5352
 Red. masses --      7.1991                 7.1164                 4.4724
 Frc consts  --      0.5005                 0.5191                 0.3406
 IR Inten    --      0.7900                 6.3655                 5.9694

                     40                     41                     42
                      A                      A                      A
 Frequencies --    368.7395               413.1801               420.7638
 Red. masses --      9.4590                10.1092                 8.9531
 Frc consts  --      0.7578                 1.0168                 0.9339
 IR Inten    --     14.5698                16.1717                 7.8295

                     43                     44                     45
                      A                      A                      A
 Frequencies --    445.7907               453.6236               462.2063
 Red. masses --      2.3297                 4.5796                 8.6300
 Frc consts  --      0.2728                 0.5552                 1.0863
 IR Inten    --      7.8485                13.2234                14.0521

                     46                     47                     48
                      A                      A                      A
 Frequencies --    471.9157               496.9351               499.7863
 Red. masses --      4.1820                 7.8691                11.8145
 Frc consts  --      0.5487                 1.1449                 1.7387
 IR Inten    --      9.3504                18.9717                 1.5098

                     49                     50                     51
                      A                      A                      A
 Frequencies --    524.0368               529.2596               541.3083
 Red. masses --      5.2713                10.2940                 4.5704
 Frc consts  --      0.8529                 1.6989                 0.7890
 IR Inten    --     42.5569                23.2144                15.2629

                     52                     53                     54
                      A                      A                      A
 Frequencies --    568.3285               568.8405               581.3317
 Red. masses --      5.5342                 6.8968                11.6374
 Frc consts  --      1.0532                 1.3149                 2.3171
 IR Inten    --     35.5578                30.0502               263.6238

                     55                     56                     57
                      A                      A                      A
 Frequencies --    605.3472               614.4052               630.6442
 Red. masses --      6.7466                 7.9133                 5.5753
 Frc consts  --      1.4566                 1.7600                 1.3064
 IR Inten    --     40.2268                 2.4487                11.9255

                     58                     59                     60
                      A                      A                      A
 Frequencies --    677.4167               680.9928               683.7499
 Red. masses --      7.4995                11.6472                 6.8849
 Frc consts  --      2.0277                 3.1824                 1.8964
 IR Inten    --      0.7050                61.8675                47.2168

                     61                     62                     63
                      A                      A                      A
 Frequencies --    710.5637               717.7875               731.4616
 Red. masses --      2.5617                 9.3549                 5.5409
 Frc consts  --      0.7621                 2.8398                 1.7467
 IR Inten    --     24.9326                 5.8275                79.9677

                     64                     65                     66
                      A                      A                      A
 Frequencies --    808.3600               835.3687               843.9017
 Red. masses --      9.1835                 4.1141                 8.7493
 Frc consts  --      3.5356                 1.6915                 3.6712
 IR Inten    --    523.0083               101.7671               102.2219

                     67                     68                     69
                      A                      A                      A
 Frequencies --    862.6425               879.3291               916.9650
 Red. masses --     12.0256                 4.1949                 1.6135
 Frc consts  --      5.2725                 1.9111                 0.7993
 IR Inten    --     26.9593                43.7712                71.8062

                     70                     71                     72
                      A                      A                      A
 Frequencies --    928.1822               951.4588               963.2511
 Red. masses --      2.7870                 1.4191                 1.3724
 Frc consts  --      1.4147                 0.7569                 0.7502
 IR Inten    --     18.9194                 8.2460                 5.6074

                     73                     74                     75
                      A                      A                      A
 Frequencies --    968.0743               977.9497              1009.5270
 Red. masses --      4.7055                 4.3135                 4.3338
 Frc consts  --      2.5982                 2.4306                 2.6023
 IR Inten    --      6.4942                37.9524                48.6036

                     76                     77                     78
                      A                      A                      A
 Frequencies --   1020.0198              1023.9336              1045.5285
 Red. masses --      6.2351                 4.3991                 3.5185
 Frc consts  --      3.8222                 2.7174                 2.2661
 IR Inten    --      1.7680                18.0935               142.0102

                     79                     80                     81
                      A                      A                      A
 Frequencies --   1086.3858              1117.2898              1122.6783
 Red. masses --      3.1781                11.9771                 3.0485
 Frc consts  --      2.2100                 8.8091                 2.2639
 IR Inten    --     19.4785                67.1987               141.3794

                     82                     83                     84
                      A                      A                      A
 Frequencies --   1129.0112              1131.2193              1137.3366
 Red. masses --      2.9380                 2.7978                 3.7164
 Frc consts  --      2.2065                 2.1094                 2.8324
 IR Inten    --     26.5592               112.8648               284.6789

                     85                     86                     87
                      A                      A                      A
 Frequencies --   1140.8187              1151.7353              1159.1919
 Red. masses --      2.0777                 4.1228                 3.6347
 Frc consts  --      1.5932                 3.2222                 2.8776
 IR Inten    --     37.1755                36.4460               151.1526

                     88                     89                     90
                      A                      A                      A
 Frequencies --   1160.0221              1168.5557              1179.1834
 Red. masses --      3.9165                 9.5538                 3.4833
 Frc consts  --      3.1051                 7.6864                 2.8537
 IR Inten    --    545.0180               403.6092                87.2801

                     91                     92                     93
                      A                      A                      A
 Frequencies --   1187.1475              1189.6872              1190.7823
 Red. masses --     12.2072                 1.8961                 3.3136
 Frc consts  --     10.1362                 1.5812                 2.7683
 IR Inten    --    337.4627                44.8735               146.7465

                     94                     95                     96
                      A                      A                      A
 Frequencies --   1193.3271              1195.9753              1196.9572
 Red. masses --      1.2608                 1.9687                 1.3583
 Frc consts  --      1.0579                 1.6591                 1.1466
 IR Inten    --      0.5513                42.1513                25.9392

                     97                     98                     99
                      A                      A                      A
 Frequencies --   1198.9553              1215.6086              1223.3041
 Red. masses --      1.3050                 7.1883                 6.2561
 Frc consts  --      1.1052                 6.2584                 5.5160
 IR Inten    --     18.4744               154.3453               276.6415

                    100                    101                    102
                      A                      A                      A
 Frequencies --   1224.6209              1232.1905              1239.7544
 Red. masses --      1.3906                 1.4878                 1.6730
 Frc consts  --      1.2287                 1.3309                 1.5150
 IR Inten    --     43.2255                30.8548                13.8950

                    103                    104                    105
                      A                      A                      A
 Frequencies --   1247.2419              1277.1493              1296.3846
 Red. masses --      1.6140                 1.7083                 3.4181
 Frc consts  --      1.4793                 1.6417                 3.3845
 IR Inten    --     26.5475                 5.7325               764.0560

                    106                    107                    108
                      A                      A                      A
 Frequencies --   1317.8165              1318.7292              1343.8073
 Red. masses --      1.4452                 1.5134                14.0810
 Frc consts  --      1.4788                 1.5506                14.9816
 IR Inten    --      2.9099                23.8064               263.0262

                    109                    110                    111
                      A                      A                      A
 Frequencies --   1350.8031              1355.8794              1377.0018
 Red. masses --      1.2474                 1.3149                 3.8636
 Frc consts  --      1.3410                 1.4242                 4.3163
 IR Inten    --      9.2869                 8.4247                 3.8103

                    112                    113                    114
                      A                      A                      A
 Frequencies --   1381.5894              1383.5908              1388.4890
 Red. masses --      1.4462                 3.4710                 1.2206
 Frc consts  --      1.6265                 3.9149                 1.3865
 IR Inten    --     64.5111               156.0787                 8.6697

                    115                    116                    117
                      A                      A                      A
 Frequencies --   1405.4715              1414.1827              1429.3106
 Red. masses --      1.3250                 1.3613                 1.2907
 Frc consts  --      1.5421                 1.6040                 1.5536
 IR Inten    --      3.3210                14.0026                 9.4661

                    118                    119                    120
                      A                      A                      A
 Frequencies --   1438.0786              1446.6831              1456.9520
 Red. masses --      1.3787                 1.2963                 1.3263
 Frc consts  --      1.6799                 1.5985                 1.6588
 IR Inten    --     31.8808                13.4829                10.9094

                    121                    122                    123
                      A                      A                      A
 Frequencies --   1498.0533              1501.2824              1504.9895
 Red. masses --      3.7113                 1.1047                 1.1622
 Frc consts  --      4.9071                 1.4670                 1.5510
 IR Inten    --      6.6541                 2.7823                 0.4588

                    124                    125                    126
                      A                      A                      A
 Frequencies --   1505.6709              1506.9337              1509.9399
 Red. masses --      4.1070                 1.1622                 1.1209
 Frc consts  --      5.4858                 1.5550                 1.5057
 IR Inten    --      1.1945                 2.0267                 5.0843

                    127                    128                    129
                      A                      A                      A
 Frequencies --   1517.1086              1519.2396              1520.4315
 Red. masses --      1.0528                 1.0572                 1.0540
 Frc consts  --      1.4277                 1.4377                 1.4355
 IR Inten    --      2.1501                 3.1816                 6.8336

                    130                    131                    132
                      A                      A                      A
 Frequencies --   1525.5426              1528.7321              1539.8437
 Red. masses --      1.1289                 1.0859                 1.0530
 Frc consts  --      1.5479                 1.4952                 1.4710
 IR Inten    --      4.4183                 4.4703                11.5337

                    133                    134                    135
                      A                      A                      A
 Frequencies --   1545.1985              1545.9251              1548.7844
 Red. masses --      1.0507                 1.0517                 1.0585
 Frc consts  --      1.4780                 1.4809                 1.4960
 IR Inten    --      5.1053                 9.9160                 9.1297

                    136                    137                    138
                      A                      A                      A
 Frequencies --   1660.7067              1681.8433              3021.9621
 Red. masses --      6.1022                 5.8260                 1.0812
 Frc consts  --      9.9156                 9.7094                 5.8175
 IR Inten    --     17.5253                22.5953                26.3029

                    139                    140                    141
                      A                      A                      A
 Frequencies --   3035.5850              3038.8794              3042.2639
 Red. masses --      1.0367                 1.0412                 1.0372
 Frc consts  --      5.6286                 5.6652                 5.6561
 IR Inten    --     75.1898                60.1761                67.6205

                    142                    143                    144
                      A                      A                      A
 Frequencies --   3043.1253              3057.4878              3058.4954
 Red. masses --      1.0363                 1.0831                 1.0775
 Frc consts  --      5.6543                 5.9657                 5.9387
 IR Inten    --     52.6294                18.9330                10.0020

                    145                    146                    147
                      A                      A                      A
 Frequencies --   3070.5502              3082.0729              3091.7024
 Red. masses --      1.0691                 1.0847                 1.1062
 Frc consts  --      5.9391                 6.0706                 6.2300
 IR Inten    --     45.2068                67.1263                62.2653

                    148                    149                    150
                      A                      A                      A
 Frequencies --   3110.3861              3114.3295              3116.6402
 Red. masses --      1.1003                 1.0997                 1.0940
 Frc consts  --      6.2719                 6.2842                 6.2611
 IR Inten    --     48.0630                55.7236                50.2329

                    151                    152                    153
                      A                      A                      A
 Frequencies --   3137.5405              3151.9559              3156.1772
 Red. masses --      1.1006                 1.1038                 1.1041
 Frc consts  --      6.3836                 6.4609                 6.4802
 IR Inten    --     21.9864                49.4802                40.1854

                    154                    155                    156
                      A                      A                      A
 Frequencies --   3157.3220              3164.9747              3175.4048
 Red. masses --      1.1053                 1.0992                 1.0885
 Frc consts  --      6.4918                 6.4875                 6.4669
 IR Inten    --     38.0740                34.0557                 8.6493

                    157                    158                    159
                      A                      A                      A
 Frequencies --   3256.2589              3262.7603              3266.7300
 Red. masses --      1.0919                 1.0918                 1.0919
 Frc consts  --      6.8213                 6.8482                 6.8652
 IR Inten    --      0.8843                 6.8526                 4.2604

 - Thermochemistry -
 -------------------
 Temperature   298.150 Kelvin.  Pressure   1.00000 Atm.
 Atom     1 has atomic number  6 and mass  12.00000

 Molecular mass:   512.09396 amu.
 Principal axes and moments of inertia in atomic units:
                           1         2         3
     Eigenvalues --  ******************************
           X            0.99994  -0.00090   0.01098
           Y            0.00012   0.99752   0.07042
           Z           -0.01101  -0.07041   0.99746
 This molecule is an asymmetric top.
 Rotational symmetry number  1.
 Warning -- assumption of classical behavior for rotation
           may cause significant error
 Rotational temperatures (Kelvin)      0.00727     0.00386     0.00351
 Rotational constants (GHZ):           0.15149     0.08045     0.07314
 Zero-point vibrational energy    1085957.4 (Joules/Mol)
                                  259.55004 (Kcal/Mol)
 Warning -- explicit consideration of  56 degrees of freedom as
           vibrations may cause significant error
 Vibrational temperatures:     13.73    24.26    26.36    35.39    50.11
          (Kelvin)             63.04    73.52    79.29    89.72   102.21
                              105.57   121.24   125.47   144.64   148.15
                              164.37   170.62   218.49   226.32   236.78
                              244.81   255.38   270.14   278.86   290.72
                              325.19   344.38   354.37   368.19   370.47
                              406.00   414.61   420.78   422.73   455.81
                              466.28   494.25   506.24   517.29   530.53
                              594.47   605.39   641.39   652.66   665.01
                              678.98   714.98   719.08   753.97   761.49
                              778.82   817.70   818.43   836.41   870.96
                              883.99   907.36   974.65   979.80   983.76
                             1022.34  1032.74  1052.41  1163.05  1201.91
                             1214.19  1241.15  1265.16  1319.31  1335.45
                             1368.94  1385.90  1392.84  1407.05  1452.48
                             1467.58  1473.21  1504.28  1563.07  1607.53
                             1615.28  1624.40  1627.57  1636.37  1641.38
                             1657.09  1667.82  1669.01  1681.29  1696.58
                             1708.04  1711.69  1713.27  1716.93  1720.74
                             1722.15  1725.03  1748.99  1760.06  1761.96
                             1772.85  1783.73  1794.50  1837.53  1865.21
                             1896.04  1897.36  1933.44  1943.50  1950.81
                             1981.20  1987.80  1990.68  1997.73  2022.16
                             2034.69  2056.46  2069.07  2081.45  2096.23
                             2155.36  2160.01  2165.34  2166.32  2168.14
                             2172.47  2182.78  2185.85  2187.56  2194.92
                             2199.50  2215.49  2223.20  2224.24  2228.36
                             2389.39  2419.80  4347.93  4367.53  4372.27
                             4377.14  4378.38  4399.04  4400.49  4417.84
                             4434.42  4448.27  4475.15  4480.83  4484.15
                             4514.22  4534.96  4541.04  4542.68  4553.69
                             4568.70  4685.03  4694.38  4700.10

 Zero-point correction=                           0.413619 (Hartree/Particle)
 Thermal correction to Energy=                    0.447187
 Thermal correction to Enthalpy=                  0.448131
 Thermal correction to Gibbs Free Energy=         0.343496
 Sum of electronic and zero-point Energies=          -2296.924085
 Sum of electronic and thermal Energies=             -2296.890518
 Sum of electronic and thermal Enthalpies=           -2296.889573
 Sum of electronic and thermal Free Energies=        -2296.994208

                     E (Thermal)             CV                S
                      KCal/Mol        Cal/Mol-Kelvin    Cal/Mol-Kelvin
 Total                  280.614            120.627            220.223
 Electronic               0.000              0.000              0.000
 Translational            0.889              2.981             44.587
 Rotational               0.889              2.981             37.131
 Vibrational            278.836            114.666            138.505
 Vibration     1          0.593              1.987              8.104
 Vibration     2          0.593              1.986              6.973
 Vibration     3          0.593              1.986              6.809
 Vibration     4          0.593              1.985              6.223
 Vibration     5          0.594              1.983              5.533
 Vibration     6          0.595              1.980              5.079
 Vibration     7          0.595              1.977              4.774
 Vibration     8          0.596              1.976              4.625
 Vibration     9          0.597              1.972              4.381
 Vibration    10          0.598              1.968              4.124
 Vibration    11          0.599              1.967              4.061
 Vibration    12          0.601              1.960              3.789
 Vibration    13          0.601              1.958              3.722
 Vibration    14          0.604              1.949              3.444
 Vibration    15          0.605              1.947              3.397
 Vibration    16          0.607              1.938              3.196
 Vibration    17          0.609              1.934              3.123
 Vibration    18          0.619              1.901              2.649
 Vibration    19          0.621              1.894              2.582
 Vibration    20          0.623              1.886              2.497
 Vibration    21          0.625              1.879              2.434
 Vibration    22          0.628              1.870              2.355
 Vibration    23          0.632              1.857              2.250
 Vibration    24          0.635              1.848              2.191
 Vibration    25          0.639              1.837              2.114
 Vibration    26          0.650              1.801              1.910
 Vibration    27          0.657              1.780              1.808
 Vibration    28          0.661              1.769              1.757
 Vibration    29          0.666              1.753              1.690
 Vibration    30          0.667              1.750              1.679
 Vibration    31          0.681              1.707              1.520
 Vibration    32          0.685              1.696              1.485
 Vibration    33          0.688              1.688              1.460
 Vibration    34          0.689              1.685              1.452
 Vibration    35          0.704              1.642              1.327
 Vibration    36          0.709              1.627              1.289
 Vibration    37          0.722              1.588              1.196
 Vibration    38          0.728              1.571              1.158
 Vibration    39          0.734              1.556              1.124
 Vibration    40          0.741              1.536              1.085
 Vibration    41          0.777              1.442              0.915
 Vibration    42          0.783              1.425              0.889
 Vibration    43          0.805              1.370              0.809
 Vibration    44          0.812              1.353              0.785
 Vibration    45          0.820              1.334              0.760
 Vibration    46          0.829              1.312              0.732
 Vibration    47          0.852              1.257              0.666
 Vibration    48          0.855              1.250              0.659
 Vibration    49          0.879              1.197              0.601
 Vibration    50          0.884              1.185              0.589
 Vibration    51          0.896              1.159              0.562
 Vibration    52          0.924              1.100              0.507
 Vibration    53          0.925              1.099              0.506
 Vibration    54          0.938              1.072              0.483
 Vibration    55          0.964              1.020              0.441
 Vibration    56          0.974              1.001              0.426

                           ! Non-Optimized Parameters !
 Normal termination of Gaussian 16 at Wed Jun  5 19:02:09 2019.
