 Gaussian 16, Revision A.03,
 Gaussian 16:  AS64L-G16RevA.03 25-Dec-2016

 ----------------------------------------------------------------------
 #p opt freq=noraman pop=none 6-31g* scrf=(pcm,solvent=tetrahydrofuran)
  pbe1pbe
 ----------------------------------------------------------------------

 -----
 title
 -----
 Symbolic Z-matrix:
 Charge =  0 Multiplicity = 1

 SCF Done:  E(RPBE1PBE) =  -2295.95108290     A.U. after   13 cycles
 SCF Done:  E(RPBE1PBE) =  -2295.95108288     A.U. after    6 cycles
 Optimization completed.
    -- Stationary point found.
 Normal termination of Gaussian 16 at Wed Jun  5 19:08:36 2019.

 ----------------------------------------------------------------------
 #P Geom=AllCheck Guess=TCheck SCRF=Check GenChk RPBE1PBE/6-31G(d) Freq
 ----------------------------------------------------------------------

 Structure from the checkpoint file:  "/scratch/users/ekwan/clay_new-glu_gluC6-bisCF3-sm-pbe0-631gd-pcm_thf/Gau-34580.chk"
 -----
 title
 -----
 Charge =  0 Multiplicity = 1

                         Standard orientation:
 ---------------------------------------------------------------------
 Center     Atomic      Atomic             Coordinates (Angstroms)
 Number     Number       Type             X           Y           Z
 ---------------------------------------------------------------------
      1          6           0        3.512126   -0.184551    0.724545
      2          6           0        3.340093   -0.499732   -0.758782
      3          6           0        1.865384   -0.415457   -1.174762
      4          6           0        1.334375    1.081522    0.595723
      5          6           0        2.784204    1.108607    1.075958
      6          1           0        1.745213   -0.496448   -2.256453
      7          1           0        3.861279    0.284407   -1.333307
      8          1           0        3.078428   -1.001720    1.319657
      9          1           0        0.789563    0.309211    1.158324
     10          1           0        3.295024    1.947576    0.584118
     11          8           0        1.268085    0.773628   -0.804220
     12          8           0        1.205992   -1.551216   -0.560810
     13          8           0        3.901037   -1.755381   -1.022310
     14          8           0        4.874124   -0.012261    1.044678
     15          8           0        2.763567    1.288209    2.474597
     16          6           0        0.622476    2.405109    0.829581
     17          1           0        0.513900    2.522594    1.911865
     18          1           0       -0.381522    2.358367    0.383563
     19          8           0        1.318286    3.539993    0.374880
     20         16           0       -0.086036   -2.197450   -1.292912
     21          8           0       -0.185354   -3.534793   -0.744891
     22          8           0        0.026029   -1.968042   -2.724922
     23          6           0       -1.446091   -1.235229   -0.676291
     24          6           0       -2.112100   -1.668057    0.463997
     25          6           0       -1.813764   -0.074402   -1.347392
     26          6           0       -3.174494   -0.907599    0.943285
     27          1           0       -1.810079   -2.584375    0.959809
     28          6           0       -2.870694    0.676146   -0.844631
     29          1           0       -1.289841    0.233882   -2.245050
     30          6           0       -3.553543    0.264612    0.296857
     31          1           0       -4.380378    0.853908    0.678640
     32          6           0        4.142369   -2.012637   -2.390597
     33          1           0        3.212161   -2.153453   -2.957478
     34          1           0        4.722685   -1.201591   -2.852845
     35          1           0        4.720518   -2.937742   -2.438674
     36          6           0        5.497833   -1.156354    1.591790
     37          1           0        6.528848   -0.872272    1.817922
     38          1           0        5.004526   -1.470041    2.522904
     39          1           0        5.497827   -1.994042    0.886266
     40          6           0        3.636691    2.298794    2.938241
     41          1           0        3.521337    2.339901    4.024471
     42          1           0        4.679615    2.067200    2.693165
     43          1           0        3.372217    3.276744    2.513027
     44          6           0        1.143789    3.827123   -0.997739
     45          1           0        1.557433    4.824888   -1.166390
     46          1           0        0.077728    3.832509   -1.266988
     47          1           0        1.662608    3.107837   -1.641697
     48          6           0       -3.955309   -1.389563    2.135931
     49          9           0       -3.185103   -2.095829    2.974370
     50          9           0       -4.970829   -2.184146    1.762727
     51          9           0       -4.482754   -0.367063    2.823347
     52          6           0       -3.239304    1.974721   -1.507382
     53          9           0       -2.555965    3.003872   -0.968192
     54          9           0       -4.541086    2.251937   -1.364181
     55          9           0       -2.959916    1.959279   -2.816322
 ---------------------------------------------------------------------

 SCF Done:  E(RPBE1PBE) =  -2295.95108288     A.U. after    1 cycles

 Isotropic polarizability for W=    0.000000      272.14 Bohr**3.
 End of Minotr F.D. properties file   721 does not exist.

                      1                      2                      3
                      A                      A                      A
 Frequencies --     12.0987                17.0123                18.3679
 Red. masses --      9.3685                11.8811                 7.6619
 Frc consts  --      0.0008                 0.0020                 0.0015
 IR Inten    --      0.1434                 0.1584                 0.1848

                      4                      5                      6
                      A                      A                      A
 Frequencies --     26.8723                38.0435                40.3382
 Red. masses --     12.0839                 4.7713                 5.2723
 Frc consts  --      0.0051                 0.0041                 0.0051
 IR Inten    --      0.0152                 0.2749                 0.5950

                      7                      8                      9
                      A                      A                      A
 Frequencies --     50.3622                53.0785                55.5628
 Red. masses --      4.8265                 3.2497                 4.1772
 Frc consts  --      0.0072                 0.0054                 0.0076
 IR Inten    --      2.4391                 0.9024                 1.3519

                     10                     11                     12
                      A                      A                      A
 Frequencies --     66.9165                70.4871                82.0406
 Red. masses --      3.0890                 3.6817                 3.4798
 Frc consts  --      0.0081                 0.0108                 0.0138
 IR Inten    --      7.7305                 0.5436                 1.3266

                     13                     14                     15
                      A                      A                      A
 Frequencies --     83.9832                99.9909               101.8989
 Red. masses --      2.6718                12.3331                 7.2214
 Frc consts  --      0.0111                 0.0727                 0.0442
 IR Inten    --      5.3480                 2.7599                 3.7650

                     16                     17                     18
                      A                      A                      A
 Frequencies --    112.7856               117.9803               150.1750
 Red. masses --      3.6441                 3.7982                 7.4981
 Frc consts  --      0.0273                 0.0311                 0.0996
 IR Inten    --      2.0189                 2.7594                 0.1618

                     19                     20                     21
                      A                      A                      A
 Frequencies --    156.1474               165.1644               169.8354
 Red. masses --      1.3615                 2.2882                 3.5464
 Frc consts  --      0.0196                 0.0368                 0.0603
 IR Inten    --      0.2990                 0.6203                 1.1364

                     22                     23                     24
                      A                      A                      A
 Frequencies --    181.6575               188.3811               195.3851
 Red. masses --      1.5439                 3.3082                 1.9032
 Frc consts  --      0.0300                 0.0692                 0.0428
 IR Inten    --      1.7236                 3.9422                 3.6164

                     25                     26                     27
                      A                      A                      A
 Frequencies --    203.2438               225.8691               237.2664
 Red. masses --      1.7064                 2.6034                11.9854
 Frc consts  --      0.0415                 0.0783                 0.3975
 IR Inten    --      0.0995                11.8485                 0.1235

                     28                     29                     30
                      A                      A                      A
 Frequencies --    246.5292               257.9033               258.9033
 Red. masses --      3.7257                 3.4194                 7.0016
 Frc consts  --      0.1334                 0.1340                 0.2765
 IR Inten    --      5.1512                10.9967                 9.5047

                     31                     32                     33
                      A                      A                      A
 Frequencies --    283.2792               287.6425               292.7715
 Red. masses --     10.5669                 4.8609                10.1331
 Frc consts  --      0.4996                 0.2370                 0.5117
 IR Inten    --      3.2841                 9.3790                 5.5910

                     34                     35                     36
                      A                      A                      A
 Frequencies --    295.0274               313.3059               325.6311
 Red. masses --      8.2364                 5.4548                 4.0264
 Frc consts  --      0.4224                 0.3155                 0.2515
 IR Inten    --     10.0788                 0.1570                 4.6021

                     37                     38                     39
                      A                      A                      A
 Frequencies --    345.5385               353.7673               360.4877
 Red. masses --      7.0950                 6.4565                 4.8629
 Frc consts  --      0.4991                 0.4761                 0.3723
 IR Inten    --      0.8076                 3.1016                 6.6885

                     40                     41                     42
                      A                      A                      A
 Frequencies --    370.7817               414.6139               422.5189
 Red. masses --      9.3192                10.0494                 8.8265
 Frc consts  --      0.7549                 1.0178                 0.9284
 IR Inten    --     13.9328                14.6793                 6.4996

                     43                     44                     45
                      A                      A                      A
 Frequencies --    444.0601               455.9464               466.2565
 Red. masses --      2.1193                 5.3993                 8.5822
 Frc consts  --      0.2462                 0.6613                 1.0993
 IR Inten    --      7.1103                11.5732                15.1937

                     46                     47                     48
                      A                      A                      A
 Frequencies --    474.7689               498.6778               502.9978
 Red. masses --      4.0762                 7.6700                11.8944
 Frc consts  --      0.5413                 1.1238                 1.7731
 IR Inten    --      7.7607                17.7006                 1.1914

                     49                     50                     51
                      A                      A                      A
 Frequencies --    527.2425               534.6326               544.8590
 Red. masses --      4.7383                10.3370                 4.8349
 Frc consts  --      0.7761                 1.7408                 0.8457
 IR Inten    --     37.4748                32.8227                 9.5593

                     52                     53                     54
                      A                      A                      A
 Frequencies --    571.4977               573.8709               585.3510
 Red. masses --      3.8031                14.6492                11.5322
 Frc consts  --      0.7318                 2.8424                 2.3281
 IR Inten    --     37.2956                15.7843               270.4766

                     55                     56                     57
                      A                      A                      A
 Frequencies --    609.4763               617.8228               638.5341
 Red. masses --      6.8430                 8.1148                 5.5369
 Frc consts  --      1.4977                 1.8250                 1.3301
 IR Inten    --     40.0821                 2.2052                10.4971

                     58                     59                     60
                      A                      A                      A
 Frequencies --    680.1003               684.8706               692.2013
 Red. masses --      7.5969                12.7362                 5.8350
 Frc consts  --      2.0703                 3.5197                 1.6472
 IR Inten    --      0.9345                61.1672                32.1306

                     61                     62                     63
                      A                      A                      A
 Frequencies --    711.1889               725.6655               742.0354
 Red. masses --      2.5308                 9.3949                 5.6185
 Frc consts  --      0.7542                 2.9149                 1.8227
 IR Inten    --     30.0010                 5.0144                60.0741

                     64                     65                     66
                      A                      A                      A
 Frequencies --    831.4624               854.2597               861.1870
 Red. masses --      6.8468                 3.7722                11.0026
 Frc consts  --      2.7889                 1.6219                 4.8077
 IR Inten    --    278.7489                24.4401               370.7487

                     67                     68                     69
                      A                      A                      A
 Frequencies --    872.2603               899.4142               916.5607
 Red. masses --     11.9190                 3.6008                 1.6407
 Frc consts  --      5.3430                 1.7162                 0.8121
 IR Inten    --     20.9959                68.3698                85.9864

                     70                     71                     72
                      A                      A                      A
 Frequencies --    945.9516               947.8961               961.7015
 Red. masses --      2.1844                 1.5976                 1.3743
 Frc consts  --      1.1517                 0.8457                 0.7489
 IR Inten    --     12.1384                12.8907                 8.2696

                     73                     74                     75
                      A                      A                      A
 Frequencies --    992.2863               999.4399              1017.9629
 Red. masses --      4.7018                 4.0401                 6.3732
 Frc consts  --      2.7276                 2.3777                 3.8911
 IR Inten    --     19.1633                45.9851                 3.5274

                     76                     77                     78
                      A                      A                      A
 Frequencies --   1032.9907              1047.8798              1062.3003
 Red. masses --      3.9395                 3.8441                 3.7254
 Frc consts  --      2.4768                 2.4870                 2.4770
 IR Inten    --     46.0657                10.0886               133.1458

                     79                     80                     81
                      A                      A                      A
 Frequencies --   1103.5319              1132.0886              1135.4443
 Red. masses --      2.8736                 6.7139                 2.7302
 Frc consts  --      2.0618                 5.0698                 2.0738
 IR Inten    --     14.8843                43.0738                85.7892

                     82                     83                     84
                      A                      A                      A
 Frequencies --   1142.5999              1145.0798              1147.6356
 Red. masses --      2.1572                 1.8171                 2.2831
 Frc consts  --      1.6593                 1.4038                 1.7716
 IR Inten    --    102.2442                25.5590                 1.8821

                     85                     86                     87
                      A                      A                      A
 Frequencies --   1158.2632              1180.2461              1182.1202
 Red. masses --      2.5197                 3.3567                 5.0303
 Frc consts  --      1.9917                 2.7549                 4.1416
 IR Inten    --    195.2297                26.2095               382.9700

                     88                     89                     90
                      A                      A                      A
 Frequencies --   1185.4616              1187.4214              1188.9283
 Red. masses --      2.5359                 1.4593                 1.2994
 Frc consts  --      2.0997                 1.2123                 1.0822
 IR Inten    --    318.8096                42.6181                 9.7187

                     91                     92                     93
                      A                      A                      A
 Frequencies --   1190.7653              1194.5744              1198.4225
 Red. masses --      1.3645                 1.3177                 8.3247
 Frc consts  --      1.1399                 1.1079                 7.0444
 IR Inten    --      2.8634                14.4096               410.1624

                     94                     95                     96
                      A                      A                      A
 Frequencies --   1201.6178              1211.1345              1214.5657
 Red. masses --      1.9759                 3.0609                12.4353
 Frc consts  --      1.6809                 2.6454                10.8081
 IR Inten    --     51.9315                92.4495               341.1076

                     97                     98                     99
                      A                      A                      A
 Frequencies --   1221.8133              1222.7218              1232.4136
 Red. masses --      1.8374                 4.1395                 1.6898
 Frc consts  --      1.6161                 3.6463                 1.5122
 IR Inten    --    128.6006               204.0301                38.0794

                    100                    101                    102
                      A                      A                      A
 Frequencies --   1240.8506              1244.7017              1246.4964
 Red. masses --      7.8903                 1.9027                 7.5564
 Frc consts  --      7.1578                 1.7368                 6.9175
 IR Inten    --    175.6637                 9.5152               272.5120

                    103                    104                    105
                      A                      A                      A
 Frequencies --   1248.7121              1273.8066              1303.1603
 Red. masses --      2.1817                 1.8668                 2.0104
 Frc consts  --      2.0043                 1.7847                 2.0115
 IR Inten    --     83.0457                11.4121               460.1612

                    106                    107                    108
                      A                      A                      A
 Frequencies --   1309.4441              1312.3927              1347.2672
 Red. masses --      1.4998                 1.8138                 1.3145
 Frc consts  --      1.5151                 1.8407                 1.4058
 IR Inten    --      6.3564               356.7393                 5.6826

                    109                    110                    111
                      A                      A                      A
 Frequencies --   1351.9854              1373.8552              1376.0144
 Red. masses --      1.3674                 1.8084                 1.2698
 Frc consts  --      1.4726                 2.0110                 1.4165
 IR Inten    --     10.6812               125.9196                17.6007

                    112                    113                    114
                      A                      A                      A
 Frequencies --   1379.5798              1397.4510              1398.1162
 Red. masses --      2.4322                 1.5142                 4.7584
 Frc consts  --      2.7273                 1.7422                 5.4802
 IR Inten    --    164.0892                10.9557               174.9926

                    115                    116                    117
                      A                      A                      A
 Frequencies --   1405.5922              1411.8013              1420.1709
 Red. masses --      4.6021                 1.6609                 1.3346
 Frc consts  --      5.3570                 1.9505                 1.5859
 IR Inten    --      1.3251                25.8005                 7.5724

                    118                    119                    120
                      A                      A                      A
 Frequencies --   1433.5028              1437.3031              1449.9241
 Red. masses --      1.4947                 1.3299                 1.4075
 Frc consts  --      1.8096                 1.6187                 1.7433
 IR Inten    --     34.5121                11.7385                11.3178

                    121                    122                    123
                      A                      A                      A
 Frequencies --   1487.6196              1494.9242              1496.5345
 Red. masses --      1.0888                 1.1791                 1.1702
 Frc consts  --      1.4197                 1.5525                 1.5441
 IR Inten    --      3.2976                 0.9612                 1.4081

                    124                    125                    126
                      A                      A                      A
 Frequencies --   1499.4894              1504.6485              1506.9077
 Red. masses --      1.1219                 4.1250                 1.0507
 Frc consts  --      1.4862                 5.5023                 1.4057
 IR Inten    --      7.6349                 2.0890                 3.2400

                    127                    128                    129
                      A                      A                      A
 Frequencies --   1508.5612              1509.2948              1514.0899
 Red. masses --      1.0657                 1.0536                 1.1339
 Frc consts  --      1.4290                 1.4140                 1.5316
 IR Inten    --     16.1616                 0.6312                 1.6663

                    130                    131                    132
                      A                      A                      A
 Frequencies --   1514.8584              1518.6739              1530.2392
 Red. masses --      4.3504                 1.0964                 1.0517
 Frc consts  --      5.8820                 1.4899                 1.4510
 IR Inten    --      0.0729                 4.4121                13.7358

                    133                    134                    135
                      A                      A                      A
 Frequencies --   1534.0696              1534.8995              1537.2436
 Red. masses --      1.0499                 1.0482                 1.0574
 Frc consts  --      1.4558                 1.4549                 1.4723
 IR Inten    --     10.2812                 7.0801                10.9145

                    136                    137                    138
                      A                      A                      A
 Frequencies --   1678.2520              1698.5178              3025.6332
 Red. masses --      6.7767                 6.4891                 1.0817
 Frc consts  --     11.2456                11.0299                 5.8344
 IR Inten    --     20.8413                24.9143                26.9498

                    139                    140                    141
                      A                      A                      A
 Frequencies --   3038.4211              3043.3311              3044.7922
 Red. masses --      1.0359                 1.0391                 1.0363
 Frc consts  --      5.6348                 5.6701                 5.6606
 IR Inten    --     68.7398                71.9785                52.2534

                    142                    143                    144
                      A                      A                      A
 Frequencies --   3046.9918              3058.2774              3059.5258
 Red. masses --      1.0351                 1.0764                 1.0821
 Frc consts  --      5.6623                 5.9316                 5.9678
 IR Inten    --     64.4870                11.2366                16.5002

                    145                    146                    147
                      A                      A                      A
 Frequencies --   3068.5607              3081.9804              3103.1572
 Red. masses --      1.0727                 1.0848                 1.1061
 Frc consts  --      5.9513                 6.0711                 6.2755
 IR Inten    --     41.6144                60.3589                57.6356

                    148                    149                    150
                      A                      A                      A
 Frequencies --   3120.9175              3124.5906              3127.2227
 Red. masses --      1.1004                 1.1029                 1.0967
 Frc consts  --      6.3147                 6.3440                 6.3194
 IR Inten    --     43.8558                49.8670                45.2807

                    151                    152                    153
                      A                      A                      A
 Frequencies --   3148.9708              3166.9456              3168.1125
 Red. masses --      1.0993                 1.1035                 1.0883
 Frc consts  --      6.4227                 6.5208                 6.4355
 IR Inten    --     17.9328                42.3911                11.7301

                    154                    155                    156
                      A                      A                      A
 Frequencies --   3170.0907              3171.6291              3179.0654
 Red. masses --      1.1036                 1.1048                 1.1000
 Frc consts  --      6.5342                 6.5477                 6.5500
 IR Inten    --     34.6054                33.1867                26.5161

                    157                    158                    159
                      A                      A                      A
 Frequencies --   3261.7626              3263.4414              3269.1080
 Red. masses --      1.0924                 1.0924                 1.0924
 Frc consts  --      6.8474                 6.8546                 6.8786
 IR Inten    --      1.4636                 8.0500                 5.9925

 - Thermochemistry -
 -------------------
 Temperature   298.150 Kelvin.  Pressure   1.00000 Atm.
 Atom     1 has atomic number  6 and mass  12.00000

 Molecular mass:   512.09396 amu.
 Principal axes and moments of inertia in atomic units:
                           1         2         3
     Eigenvalues --  ******************************
           X            0.99994  -0.00025   0.01055
           Y           -0.00065   0.99633   0.08554
           Z           -0.01053  -0.08554   0.99628
 This molecule is an asymmetric top.
 Rotational symmetry number  1.
 Warning -- assumption of classical behavior for rotation
           may cause significant error
 Rotational temperatures (Kelvin)      0.00730     0.00391     0.00361
 Rotational constants (GHZ):           0.15204     0.08152     0.07521
 Zero-point vibrational energy    1089951.0 (Joules/Mol)
                                  260.50455 (Kcal/Mol)
 Warning -- explicit consideration of  56 degrees of freedom as
           vibrations may cause significant error
 Vibrational temperatures:     17.41    24.48    26.43    38.66    54.74
          (Kelvin)             58.04    72.46    76.37    79.94    96.28
                              101.42   118.04   120.83   143.86   146.61
                              162.27   169.75   216.07   224.66   237.63
                              244.36   261.36   271.04   281.12   292.42
                              324.98   341.37   354.70   371.07   372.50
                              407.58   413.85   421.23   424.48   450.78
                              468.51   497.15   508.99   518.66   533.47
                              596.54   607.91   638.90   656.01   670.84
                              683.09   717.49   723.70   758.58   769.22
                              783.93   822.26   825.67   842.19   876.90
                              888.91   918.71   978.51   985.38   995.92
                             1023.24  1044.07  1067.62  1196.29  1229.09
                             1239.06  1254.99  1294.06  1318.73  1361.01
                             1363.81  1383.67  1427.68  1437.97  1464.62
                             1486.24  1507.67  1528.41  1587.74  1628.82
                             1633.65  1643.95  1647.51  1651.19  1666.48
                             1698.11  1700.81  1705.61  1708.43  1710.60
                             1713.25  1718.73  1724.26  1728.86  1742.55
                             1747.49  1757.92  1759.22  1773.17  1785.31
                             1790.85  1793.43  1796.62  1832.72  1874.96
                             1884.00  1888.24  1938.42  1945.21  1976.67
                             1979.78  1984.91  2010.62  2011.58  2022.33
                             2031.27  2043.31  2062.49  2067.96  2086.12
                             2140.35  2150.86  2153.18  2157.43  2164.85
                             2168.10  2170.48  2171.54  2178.44  2179.54
                             2185.03  2201.67  2207.18  2208.38  2211.75
                             2414.63  2443.79  4353.21  4371.61  4378.67
                             4380.78  4383.94  4400.18  4401.98  4414.97
                             4434.28  4464.75  4490.30  4495.59  4499.38
                             4530.67  4556.53  4558.21  4561.05  4563.27
                             4573.97  4692.95  4695.36  4703.52

 Zero-point correction=                           0.415140 (Hartree/Particle)
 Thermal correction to Energy=                    0.448620
 Thermal correction to Enthalpy=                  0.449565
 Thermal correction to Gibbs Free Energy=         0.345125
 Sum of electronic and zero-point Energies=          -2295.535942
 Sum of electronic and thermal Energies=             -2295.502462
 Sum of electronic and thermal Enthalpies=           -2295.501518
 Sum of electronic and thermal Free Energies=        -2295.605958

                     E (Thermal)             CV                S
                      KCal/Mol        Cal/Mol-Kelvin    Cal/Mol-Kelvin
 Total                  281.514            119.957            219.811
 Electronic               0.000              0.000              0.000
 Translational            0.889              2.981             44.587
 Rotational               0.889              2.981             37.087
 Vibrational            279.736            113.996            138.138
 Vibration     1          0.593              1.987              7.633
 Vibration     2          0.593              1.986              6.956
 Vibration     3          0.593              1.986              6.803
 Vibration     4          0.593              1.984              6.048
 Vibration     5          0.594              1.982              5.358
 Vibration     6          0.594              1.981              5.242
 Vibration     7          0.595              1.977              4.803
 Vibration     8          0.596              1.976              4.699
 Vibration     9          0.596              1.975              4.609
 Vibration    10          0.598              1.970              4.242
 Vibration    11          0.598              1.968              4.140
 Vibration    12          0.600              1.961              3.841
 Vibration    13          0.601              1.960              3.796
 Vibration    14          0.604              1.949              3.454
 Vibration    15          0.604              1.948              3.418
 Vibration    16          0.607              1.939              3.220
 Vibration    17          0.608              1.934              3.133
 Vibration    18          0.618              1.902              2.670
 Vibration    19          0.620              1.896              2.596
 Vibration    20          0.624              1.885              2.490
 Vibration    21          0.625              1.880              2.437
 Vibration    22          0.630              1.865              2.311
 Vibration    23          0.633              1.856              2.244
 Vibration    24          0.636              1.846              2.176
 Vibration    25          0.639              1.835              2.104
 Vibration    26          0.650              1.802              1.912
 Vibration    27          0.656              1.784              1.823
 Vibration    28          0.661              1.769              1.755
 Vibration    29          0.667              1.749              1.676
 Vibration    30          0.668              1.748              1.669
 Vibration    31          0.682              1.705              1.514
 Vibration    32          0.685              1.697              1.488
 Vibration    33          0.688              1.687              1.458
 Vibration    34          0.689              1.683              1.445
 Vibration    35          0.701              1.648              1.345
 Vibration    36          0.710              1.624              1.282
 Vibration    37          0.724              1.584              1.186
 Vibration    38          0.730              1.568              1.149
 Vibration    39          0.735              1.554              1.120
 Vibration    40          0.743              1.532              1.077
 Vibration    41          0.778              1.439              0.910
 Vibration    42          0.785              1.421              0.883
 Vibration    43          0.804              1.374              0.814
 Vibration    44          0.814              1.348              0.778
 Vibration    45          0.824              1.325              0.748
 Vibration    46          0.831              1.306              0.724
 Vibration    47          0.854              1.253              0.661
 Vibration    48          0.858              1.243              0.651
 Vibration    49          0.882              1.190              0.593
 Vibration    50          0.890              1.173              0.577
 Vibration    51          0.900              1.151              0.555
 Vibration    52          0.928              1.093              0.501
 Vibration    53          0.930              1.088              0.497
 Vibration    54          0.942              1.063              0.476
 Vibration    55          0.968              1.012              0.434
 Vibration    56          0.978              0.994              0.420

                           ! Non-Optimized Parameters !
 Normal termination of Gaussian 16 at Wed Jun  5 19:50:28 2019.
