 Gaussian 16, Revision A.03,
 Gaussian 16:  AS64L-G16RevA.03 25-Dec-2016

 ----------------------------------------------------------------------
 #p opt freq=noraman 6-31g(d) scrf=(solvent=tetrahydrofuran,pcm) pop=no
 ne empiricaldispersion=gd3 m06hf
 ----------------------------------------------------------------------

 -----
 title
 -----
 Symbolic Z-matrix:
 Charge =  0 Multiplicity = 1

 SCF Done:  E(RM06HF) =  -2297.47046422     A.U. after   14 cycles
 Optimization completed.
    -- Stationary point found.
 Normal termination of Gaussian 16 at Mon Jun 10 05:40:44 2019.

 --------------------------------------------------------------------
 #P Geom=AllCheck Guess=TCheck SCRF=Check GenChk RM06HF/6-31G(d) Freq
 --------------------------------------------------------------------

 Structure from the checkpoint file:  "/scratch/users/ekwan/clay_new-glu_gluC6-bisCF3-sm-m06_hf_d3-631gd-pcm_thf/Gau-53070.chk"
 -----
 title
 -----
 Charge =  0 Multiplicity = 1

                         Standard orientation:
 ---------------------------------------------------------------------
 Center     Atomic      Atomic             Coordinates (Angstroms)
 Number     Number       Type             X           Y           Z
 ---------------------------------------------------------------------
      1          6           0        3.376729    0.287342    0.632066
      2          6           0        3.301518   -0.452377   -0.704300
      3          6           0        1.838233   -0.733645   -1.088103
      4          6           0        1.024054    1.086705    0.220413
      5          6           0        2.444005    1.495520    0.622130
      6          1           0        1.748406   -1.137436   -2.092269
      7          1           0        3.705229    0.203225   -1.485209
      8          1           0        3.062903   -0.389140    1.432726
      9          1           0        0.612463    0.431992    0.994365
     10          1           0        2.815404    2.227051   -0.100674
     11          8           0        1.037165    0.393959   -1.033507
     12          8           0        1.367741   -1.733532   -0.152861
     13          8           0        4.052555   -1.627223   -0.593039
     14          8           0        4.689457    0.748368    0.847734
     15          8           0        2.373782    2.049848    1.914563
     16          6           0        0.117404    2.311865    0.089797
     17          1           0       -0.067436    2.687292    1.094165
     18          1           0       -0.828864    2.009060   -0.367293
     19          8           0        0.702529    3.367671   -0.634983
     20         16           0        0.085475   -2.599465   -0.552758
     21          8           0        0.044558   -3.680635    0.400807
     22          8           0        0.143182   -2.859678   -1.976168
     23          6           0       -1.276318   -1.508047   -0.238277
     24          6           0       -1.774795   -1.425773    1.054014
     25          6           0       -1.781257   -0.752591   -1.289615
     26          6           0       -2.818211   -0.536824    1.292452
     27          1           0       -1.362507   -2.037703    1.846029
     28          6           0       -2.823850    0.121236   -1.014384
     29          1           0       -1.371201   -0.848980   -2.285893
     30          6           0       -3.348582    0.239636    0.269799
     31          1           0       -4.159309    0.927559    0.468540
     32          6           0        4.221501   -2.349256   -1.805200
     33          1           0        3.297010   -2.852743   -2.094705
     34          1           0        4.544891   -1.681562   -2.606616
     35          1           0        4.989098   -3.094144   -1.618191
     36          6           0        5.435241   -0.018277    1.783689
     37          1           0        6.428256    0.421451    1.825264
     38          1           0        4.969601    0.036851    2.769963
     39          1           0        5.501234   -1.056458    1.461566
     40          6           0        3.064666    3.285370    2.055069
     41          1           0        2.946781    3.592112    3.091004
     42          1           0        4.121065    3.154599    1.823307
     43          1           0        2.626182    4.035622    1.394974
     44          6           0        0.741309    3.179821   -2.042969
     45          1           0        0.948703    4.152518   -2.481596
     46          1           0       -0.222478    2.812793   -2.402467
     47          1           0        1.521071    2.473524   -2.326869
     48          6           0       -3.416116   -0.462025    2.675845
     49          9           0       -2.484372   -0.660412    3.616571
     50          9           0       -4.362308   -1.394817    2.847486
     51          9           0       -3.982877    0.730304    2.897559
     52          6           0       -3.349560    1.015875   -2.108304
     53          9           0       -2.733440    2.210991   -2.090048
     54          9           0       -4.659338    1.246977   -1.964679
     55          9           0       -3.148516    0.483224   -3.318121
 ---------------------------------------------------------------------

 SCF Done:  E(RM06HF) =  -2297.47046422     A.U. after    1 cycles

 Isotropic polarizability for W=    0.000000      260.30 Bohr**3.
 End of Minotr F.D. properties file   721 does not exist.

 ******    1 imaginary frequencies (negative Signs) ******

                      1                      2                      3
                      A                      A                      A
 Frequencies --    -18.8707                12.1414                18.5315
 Red. masses --      2.1927                 6.6879                 7.3755
 Frc consts  --      0.0005                 0.0006                 0.0015
 IR Inten    --      3.2284                 1.1083                 0.4731

                      4                      5                      6
                      A                      A                      A
 Frequencies --     23.5354                27.8720                38.5144
 Red. masses --      7.7146                17.8742                 4.7416
 Frc consts  --      0.0025                 0.0082                 0.0041
 IR Inten    --      0.1282                 0.0362                 0.2526

                      7                      8                      9
                      A                      A                      A
 Frequencies --     48.1735                53.6797                61.2645
 Red. masses --      6.8406                 5.1894                 3.9286
 Frc consts  --      0.0094                 0.0088                 0.0087
 IR Inten    --      0.2537                 3.0002                 1.4534

                     10                     11                     12
                      A                      A                      A
 Frequencies --     71.2002                77.1460                85.3279
 Red. masses --      3.9005                 3.7297                 3.2292
 Frc consts  --      0.0117                 0.0131                 0.0139
 IR Inten    --      1.4203                 1.5028                 8.7781

                     13                     14                     15
                      A                      A                      A
 Frequencies --     96.4208                98.8260                99.7164
 Red. masses --      4.6474                 8.7554                 2.1146
 Frc consts  --      0.0255                 0.0504                 0.0124
 IR Inten    --      4.6219                 4.3891                 1.1981

                     16                     17                     18
                      A                      A                      A
 Frequencies --    110.2836               118.9391               143.4106
 Red. masses --      5.2971                 3.7916                 2.3411
 Frc consts  --      0.0380                 0.0316                 0.0284
 IR Inten    --      3.1652                 2.2902                 2.5568

                     19                     20                     21
                      A                      A                      A
 Frequencies --    153.8962               169.2973               177.9773
 Red. masses --      6.9593                 5.8753                 3.3551
 Frc consts  --      0.0971                 0.0992                 0.0626
 IR Inten    --      0.5995                 1.8600                 1.6609

                     22                     23                     24
                      A                      A                      A
 Frequencies --    187.9029               204.9862               206.9386
 Red. masses --      3.4060                 3.4052                 1.3504
 Frc consts  --      0.0709                 0.0843                 0.0341
 IR Inten    --      0.4135                17.6241                 2.1467

                     25                     26                     27
                      A                      A                      A
 Frequencies --    221.2267               232.4179               235.1425
 Red. masses --      1.4718                10.6878                 1.4839
 Frc consts  --      0.0424                 0.3402                 0.0483
 IR Inten    --      0.1155                 0.2436                 6.5518

                     28                     29                     30
                      A                      A                      A
 Frequencies --    241.5607               256.1364               267.8144
 Red. masses --      3.0625                 8.4762                 3.5243
 Frc consts  --      0.1053                 0.3276                 0.1489
 IR Inten    --      3.9987                 5.2748                12.8236

                     31                     32                     33
                      A                      A                      A
 Frequencies --    282.4393               285.6833               292.9758
 Red. masses --     11.2147                 4.6251                11.6041
 Frc consts  --      0.5271                 0.2224                 0.5868
 IR Inten    --      4.7647                 7.6861                 5.8930

                     34                     35                     36
                      A                      A                      A
 Frequencies --    295.5135               314.7404               326.6521
 Red. masses --      7.3436                 5.1957                 3.9629
 Frc consts  --      0.3778                 0.3032                 0.2491
 IR Inten    --     12.4948                 0.1604                 2.5693

                     37                     38                     39
                      A                      A                      A
 Frequencies --    346.0353               356.0743               360.8388
 Red. masses --      7.2813                 4.8426                 6.7242
 Frc consts  --      0.5137                 0.3617                 0.5158
 IR Inten    --      2.6545                 2.2814                 8.1568

                     40                     41                     42
                      A                      A                      A
 Frequencies --    378.6184               417.3586               427.2214
 Red. masses --      9.0735                10.0222                 8.2072
 Frc consts  --      0.7663                 1.0286                 0.8826
 IR Inten    --     13.5507                16.3653                 7.5165

                     43                     44                     45
                      A                      A                      A
 Frequencies --    433.7521               458.2275               473.4766
 Red. masses --      2.2649                 5.9543                 7.8672
 Frc consts  --      0.2511                 0.7366                 1.0391
 IR Inten    --     12.3576                 9.1170                12.5968

                     46                     47                     48
                      A                      A                      A
 Frequencies --    479.1474               502.2865               509.4636
 Red. masses --      4.0182                 7.8956                11.8722
 Frc consts  --      0.5435                 1.1737                 1.8155
 IR Inten    --     11.8825                13.8684                 1.1159

                     49                     50                     51
                      A                      A                      A
 Frequencies --    529.7764               540.5037               550.6462
 Red. masses --      4.1971                 9.4634                 5.6336
 Frc consts  --      0.6940                 1.6289                 1.0064
 IR Inten    --     29.6191                51.8372                 7.7552

                     52                     53                     54
                      A                      A                      A
 Frequencies --    572.1781               580.4496               596.5253
 Red. masses --      4.0307                14.9271                10.0632
 Frc consts  --      0.7775                 2.9632                 2.1098
 IR Inten    --     55.5032                 0.9203               267.6395

                     55                     56                     57
                      A                      A                      A
 Frequencies --    614.4640               619.1869               658.7821
 Red. masses --      6.6476                 8.3328                 5.6313
 Frc consts  --      1.4788                 1.8823                 1.4399
 IR Inten    --     40.8875                 6.0677                18.1599

                     58                     59                     60
                      A                      A                      A
 Frequencies --    685.5786               691.4106               702.0171
 Red. masses --     12.8391                 7.6828                 5.1304
 Frc consts  --      3.5555                 2.1639                 1.4897
 IR Inten    --     68.1850                 0.8422                 7.7436

                     61                     62                     63
                      A                      A                      A
 Frequencies --    715.3624               730.0296               755.8298
 Red. masses --      2.5062                 9.7216                 6.1879
 Frc consts  --      0.7557                 3.0526                 2.0828
 IR Inten    --     45.3396                 2.1398                23.5494

                     64                     65                     66
                      A                      A                      A
 Frequencies --    847.6892               866.8286               881.3940
 Red. masses --      6.8591                 3.8843                11.9122
 Frc consts  --      2.9039                 1.7196                 5.4524
 IR Inten    --     30.3816                18.1905                13.2265

                     67                     68                     69
                      A                      A                      A
 Frequencies --    900.7246               939.9416               954.0439
 Red. masses --      5.2769                 5.5978                 1.6286
 Frc consts  --      2.5224                 2.9139                 0.8734
 IR Inten    --    270.8053               339.6681                66.0543

                     70                     71                     72
                      A                      A                      A
 Frequencies --    966.0649               982.9788               997.6936
 Red. masses --      2.5094                 1.4101                 1.3910
 Frc consts  --      1.3798                 0.8027                 0.8158
 IR Inten    --     14.6508                 0.1552                10.4938

                     73                     74                     75
                      A                      A                      A
 Frequencies --   1006.8085              1010.1816              1012.9535
 Red. masses --      6.1689                 3.8522                 4.2850
 Frc consts  --      3.6843                 2.3161                 2.5905
 IR Inten    --     16.0128                 7.6135                76.0630

                     76                     77                     78
                      A                      A                      A
 Frequencies --   1054.9713              1062.9575              1076.5635
 Red. masses --      4.0147                 3.9048                 4.0822
 Frc consts  --      2.6326                 2.5995                 2.7876
 IR Inten    --     38.7059                41.4073               156.5601

                     79                     80                     81
                      A                      A                      A
 Frequencies --   1120.4318              1139.9042              1145.5229
 Red. masses --      2.9206                 4.0642                 3.2653
 Frc consts  --      2.1602                 3.1114                 2.5245
 IR Inten    --     21.1851                91.7247                17.6412

                     82                     83                     84
                      A                      A                      A
 Frequencies --   1148.7916              1153.4031              1154.3795
 Red. masses --      2.7241                 1.7335                 2.1852
 Frc consts  --      2.1181                 1.3587                 1.7157
 IR Inten    --     94.2130                25.9262                28.6587

                     85                     86                     87
                      A                      A                      A
 Frequencies --   1172.2149              1177.1522              1202.5659
 Red. masses --      2.3334                 3.4981                 2.4745
 Frc consts  --      1.8891                 2.8559                 2.1084
 IR Inten    --    220.7719               277.7477                35.2019

                     88                     89                     90
                      A                      A                      A
 Frequencies --   1207.0293              1210.5610              1213.8126
 Red. masses --      2.1874                 1.3217                 1.3916
 Frc consts  --      1.8776                 1.1412                 1.2080
 IR Inten    --    197.7812                 9.2770                32.4367

                     91                     92                     93
                      A                      A                      A
 Frequencies --   1215.7914              1218.6138              1225.5815
 Red. masses --      1.3187                 1.3301                 1.5015
 Frc consts  --      1.1484                 1.1638                 1.3288
 IR Inten    --     13.5233                23.5891                27.4318

                     94                     95                     96
                      A                      A                      A
 Frequencies --   1228.7496              1248.9114              1252.4116
 Red. masses --      1.8218                 3.0358                 5.4718
 Frc consts  --      1.6206                 2.7899                 5.0568
 IR Inten    --     64.1542               109.8894                17.4065

                     97                     98                     99
                      A                      A                      A
 Frequencies --   1255.4294              1266.6994              1273.7658
 Red. masses --      3.0362                 1.8570                11.5057
 Frc consts  --      2.8194                 1.7555                10.9987
 IR Inten    --    259.3991                88.6762               393.3590

                    100                    101                    102
                      A                      A                      A
 Frequencies --   1280.7311              1285.2435              1288.2361
 Red. masses --      2.0077                11.3780                 2.4458
 Frc consts  --      1.9403                11.0736                 2.3915
 IR Inten    --     11.7199               319.5815                72.8523

                    103                    104                    105
                      A                      A                      A
 Frequencies --   1300.5776              1305.6055              1316.6996
 Red. masses --      1.9638                 8.5997                 2.5330
 Frc consts  --      1.9571                 8.6369                 2.5874
 IR Inten    --     39.0957               335.4138                25.5474

                    106                    107                    108
                      A                      A                      A
 Frequencies --   1323.8656              1335.9279              1338.6094
 Red. masses --      1.6146                 5.0714                 2.5552
 Frc consts  --      1.6672                 5.3326                 2.6976
 IR Inten    --     22.8855               944.3052                40.5826

                    109                    110                    111
                      A                      A                      A
 Frequencies --   1357.3346              1362.5915              1371.6776
 Red. masses --      5.0641                 1.2688                 1.5702
 Frc consts  --      5.4970                 1.3879                 1.7406
 IR Inten    --    193.5127                 9.2552                 8.9269

                    112                    113                    114
                      A                      A                      A
 Frequencies --   1398.5445              1402.8260              1419.7339
 Red. masses --      1.3090                 1.2621                 6.0530
 Frc consts  --      1.5085                 1.4633                 7.1884
 IR Inten    --     14.9287                28.8715               204.5037

                    115                    116                    117
                      A                      A                      A
 Frequencies --   1421.9255              1436.7064              1446.6819
 Red. masses --      1.5124                 1.3673                 1.3304
 Frc consts  --      1.8016                 1.6629                 1.6405
 IR Inten    --      2.4861                 3.5298                12.2647

                    118                    119                    120
                      A                      A                      A
 Frequencies --   1461.1894              1470.5111              1485.9808
 Red. masses --      1.4776                 1.3626                 1.4554
 Frc consts  --      1.8587                 1.7360                 1.8935
 IR Inten    --     26.5469                27.3727                10.7557

                    121                    122                    123
                      A                      A                      A
 Frequencies --   1522.5870              1535.9694              1536.8053
 Red. masses --      4.3906                 2.5631                 1.3554
 Frc consts  --      5.9971                 3.5628                 1.8861
 IR Inten    --      3.6206                 0.9416                 2.3997

                    124                    125                    126
                      A                      A                      A
 Frequencies --   1543.8397              1545.5434              1553.4842
 Red. masses --      1.1817                 1.1786                 1.1620
 Frc consts  --      1.6594                 1.6588                 1.6522
 IR Inten    --      0.3805                 1.1431                 3.4473

                    127                    128                    129
                      A                      A                      A
 Frequencies --   1568.1650              1573.0342              1574.7711
 Red. masses --      1.1488                 1.0523                 1.0540
 Frc consts  --      1.6644                 1.5342                 1.5400
 IR Inten    --      5.3938                 1.7581                 0.5196

                    130                    131                    132
                      A                      A                      A
 Frequencies --   1575.0923              1577.4181              1588.4290
 Red. masses --      1.0611                 1.0577                 1.0517
 Frc consts  --      1.5510                 1.5507                 1.5634
 IR Inten    --     11.3823                 6.2765                 7.6235

                    133                    134                    135
                      A                      A                      A
 Frequencies --   1588.5735              1590.8914              1593.8086
 Red. masses --      1.0516                 1.0491                 1.0519
 Frc consts  --      1.5636                 1.5644                 1.5744
 IR Inten    --     11.7144                 8.2126                 6.1250

                    136                    137                    138
                      A                      A                      A
 Frequencies --   1705.2663              1723.9674              3089.1767
 Red. masses --      6.8476                 6.5477                 1.0838
 Frc consts  --     11.7320                11.4656                 6.0938
 IR Inten    --     29.1321                36.1212                17.1710

                    139                    140                    141
                      A                      A                      A
 Frequencies --   3111.1279              3115.8870              3117.9698
 Red. masses --      1.0836                 1.0823                 1.0351
 Frc consts  --      6.1798                 6.1911                 5.9291
 IR Inten    --      6.3406                 4.0240                38.7224

                    142                    143                    144
                      A                      A                      A
 Frequencies --   3125.0099              3127.3457              3127.8967
 Red. masses --      1.0419                 1.0584                 1.0401
 Frc consts  --      5.9950                 6.0989                 5.9955
 IR Inten    --     26.6685                12.7558                59.1760

                    145                    146                    147
                      A                      A                      A
 Frequencies --   3129.6814              3131.9090              3167.7323
 Red. masses --      1.0490                 1.0681                 1.1062
 Frc consts  --      6.0540                 6.1725                 6.5403
 IR Inten    --     23.0579                79.3408                47.6431

                    148                    149                    150
                      A                      A                      A
 Frequencies --   3183.2114              3191.0685              3191.5336
 Red. masses --      1.1023                 1.0990                 1.1031
 Frc consts  --      6.5811                 6.5933                 6.6204
 IR Inten    --     40.4621                43.9265                25.8685

                    151                    152                    153
                      A                      A                      A
 Frequencies --   3206.1013              3221.5524              3227.0881
 Red. masses --      1.0996                 1.1035                 1.1041
 Frc consts  --      6.6592                 6.7477                 6.7748
 IR Inten    --     12.6383                41.8287                30.4247

                    154                    155                    156
                      A                      A                      A
 Frequencies --   3228.1707              3228.5278              3234.1616
 Red. masses --      1.1048                 1.0890                 1.0993
 Frc consts  --      6.7833                 6.6879                 6.7748
 IR Inten    --     28.1028                 8.1987                24.5449

                    157                    158                    159
                      A                      A                      A
 Frequencies --   3283.1856              3292.3058              3295.1978
 Red. masses --      1.0937                 1.0935                 1.0936
 Frc consts  --      6.9460                 6.9831                 6.9966
 IR Inten    --     15.1773                 6.7837                14.3092

 - Thermochemistry -
 -------------------
 Temperature   298.150 Kelvin.  Pressure   1.00000 Atm.
 Atom     1 has atomic number  6 and mass  12.00000

 Molecular mass:   512.09396 amu.
 Principal axes and moments of inertia in atomic units:
                           1         2         3
     Eigenvalues --  ******************************
           X            0.99994   0.00503   0.00982
           Y           -0.00705   0.97576   0.21872
           Z           -0.00849  -0.21878   0.97574
 This molecule is an asymmetric top.
 Rotational symmetry number  1.
 Warning -- assumption of classical behavior for rotation
           may cause significant error
 Rotational temperatures (Kelvin)      0.00731     0.00412     0.00402
 Rotational constants (GHZ):           0.15229     0.08585     0.08386
    1 imaginary frequencies ignored.
 Zero-point vibrational energy    1111042.1 (Joules/Mol)
                                  265.54543 (Kcal/Mol)
 Warning -- explicit consideration of  55 degrees of freedom as
           vibrations may cause significant error
 Vibrational temperatures:     17.47    26.66    33.86    40.10    55.41
          (Kelvin)             69.31    77.23    88.15   102.44   111.00
                              122.77   138.73   142.19   143.47   158.67
                              171.13   206.34   221.42   243.58   256.07
                              270.35   294.93   297.74   318.30   334.40
                              338.32   347.55   368.52   385.33   406.37
                              411.03   421.53   425.18   452.84   469.98
                              497.87   512.31   519.17   544.75   600.49
                              614.68   624.07   659.29   681.23   689.39
                              722.68   733.00   762.23   777.66   792.26
                              823.24   835.14   858.27   884.08   890.87
                              947.84   986.39   994.79  1010.05  1029.25
                             1050.35  1087.47  1219.64  1247.17  1268.13
                             1295.94  1352.37  1372.66  1389.95  1414.29
                             1435.46  1448.57  1453.43  1457.41  1517.87
                             1529.36  1548.93  1612.05  1640.07  1648.15
                             1652.85  1659.49  1660.89  1686.56  1693.66
                             1730.22  1736.65  1741.73  1746.41  1749.25
                             1753.31  1763.34  1767.90  1796.90  1801.94
                             1806.28  1822.50  1832.66  1842.69  1849.18
                             1853.48  1871.24  1878.48  1894.44  1904.75
                             1922.10  1925.96  1952.90  1960.47  1973.54
                             2012.19  2018.35  2042.68  2045.83  2067.10
                             2081.45  2102.33  2115.74  2137.99  2190.66
                             2209.92  2211.12  2221.24  2223.69  2235.12
                             2256.24  2263.25  2265.74  2266.21  2269.55
                             2285.40  2285.60  2288.94  2293.14  2453.50
                             2480.40  4444.64  4476.22  4483.07  4486.06
                             4496.19  4499.55  4500.35  4502.91  4506.12
                             4557.66  4579.93  4591.24  4591.91  4612.86
                             4635.10  4643.06  4644.62  4645.13  4653.24
                             4723.77  4736.89  4741.05

 Zero-point correction=                           0.423174 (Hartree/Particle)
 Thermal correction to Energy=                    0.455438
 Thermal correction to Enthalpy=                  0.456382
 Thermal correction to Gibbs Free Energy=         0.355721
 Sum of electronic and zero-point Energies=          -2297.047291
 Sum of electronic and thermal Energies=             -2297.015026
 Sum of electronic and thermal Enthalpies=           -2297.014082
 Sum of electronic and thermal Free Energies=        -2297.114743

                     E (Thermal)             CV                S
                      KCal/Mol        Cal/Mol-Kelvin    Cal/Mol-Kelvin
 Total                  285.792            116.528            211.858
 Electronic               0.000              0.000              0.000
 Translational            0.889              2.981             44.587
 Rotational               0.889              2.981             36.926
 Vibrational            284.014            110.567            130.346
 Vibration     1          0.593              1.987              7.626
 Vibration     2          0.593              1.986              6.786
 Vibration     3          0.593              1.985              6.311
 Vibration     4          0.593              1.984              5.975
 Vibration     5          0.594              1.981              5.334
 Vibration     6          0.595              1.978              4.891
 Vibration     7          0.596              1.976              4.677
 Vibration     8          0.597              1.973              4.416
 Vibration     9          0.598              1.968              4.120
 Vibration    10          0.599              1.964              3.962
 Vibration    11          0.601              1.959              3.764
 Vibration    12          0.603              1.952              3.525
 Vibration    13          0.604              1.950              3.477
 Vibration    14          0.604              1.949              3.460
 Vibration    15          0.606              1.941              3.264
 Vibration    16          0.609              1.934              3.118
 Vibration    17          0.616              1.910              2.758
 Vibration    18          0.619              1.898              2.623
 Vibration    19          0.625              1.880              2.443
 Vibration    20          0.628              1.869              2.350
 Vibration    21          0.633              1.856              2.248
 Vibration    22          0.640              1.833              2.088
 Vibration    23          0.641              1.830              2.071
 Vibration    24          0.648              1.809              1.949
 Vibration    25          0.653              1.791              1.860
 Vibration    26          0.655              1.787              1.839
 Vibration    27          0.658              1.777              1.791
 Vibration    28          0.666              1.752              1.688
 Vibration    29          0.673              1.732              1.610
 Vibration    30          0.681              1.706              1.519
 Vibration    31          0.683              1.700              1.499
 Vibration    32          0.688              1.687              1.457
 Vibration    33          0.690              1.682              1.442
 Vibration    34          0.702              1.646              1.337
 Vibration    35          0.710              1.622              1.277
 Vibration    36          0.724              1.583              1.184
 Vibration    37          0.732              1.563              1.139
 Vibration    38          0.735              1.553              1.118
 Vibration    39          0.749              1.516              1.045
 Vibration    40          0.780              1.433              0.901
 Vibration    41          0.789              1.411              0.868
 Vibration    42          0.794              1.397              0.846
 Vibration    43          0.816              1.343              0.771
 Vibration    44          0.830              1.309              0.728
 Vibration    45          0.836              1.296              0.712
 Vibration    46          0.858              1.245              0.652
 Vibration    47          0.865              1.229              0.635
 Vibration    48          0.885              1.184              0.588
 Vibration    49          0.896              1.161              0.564
 Vibration    50          0.906              1.138              0.543
 Vibration    51          0.928              1.091              0.500
 Vibration    52          0.937              1.074              0.485
 Vibration    53          0.954              1.039              0.456
 Vibration    54          0.974              1.001              0.425
 Vibration    55          0.979              0.991              0.418

 Optimization completed on the basis of negligible forces.
    -- Stationary point found.
 Normal termination of Gaussian 16 at Mon Jun 10 06:19:46 2019.
