 Gaussian 16, Revision A.03,
 Gaussian 16:  AS64L-G16RevA.03 25-Dec-2016

 ----------------------------------------------------------------------
 #p opt freq=noraman pop=none 6-31g* scrf=(pcm,solvent=tetrahydrofuran)
  n12sx
 ----------------------------------------------------------------------

 -----
 title
 -----
 Symbolic Z-matrix:
 Charge =  0 Multiplicity = 1

 SCF Done:  E(RN12SX) =  -2297.20581562     A.U. after   14 cycles
 Optimization completed.
    -- Stationary point found.
 Normal termination of Gaussian 16 at Wed Jun  5 19:01:12 2019.

 --------------------------------------------------------------------
 #P Geom=AllCheck Guess=TCheck SCRF=Check GenChk RN12SX/6-31G(d) Freq
 --------------------------------------------------------------------

 Structure from the checkpoint file:  "/scratch/users/ekwan/clay_new-glu_gluC6-bisCF3-sm-n12sx-631gd-pcm_thf/Gau-55635.chk"
 -----
 title
 -----
 Charge =  0 Multiplicity = 1

                         Standard orientation:
 ---------------------------------------------------------------------
 Center     Atomic      Atomic             Coordinates (Angstroms)
 Number     Number       Type             X           Y           Z
 ---------------------------------------------------------------------
      1          6           0        3.492865   -0.191469    0.743327
      2          6           0        3.335741   -0.507502   -0.739931
      3          6           0        1.867240   -0.423291   -1.168316
      4          6           0        1.320347    1.077400    0.595121
      5          6           0        2.764727    1.102701    1.085233
      6          1           0        1.758904   -0.505315   -2.245770
      7          1           0        3.858963    0.273014   -1.306807
      8          1           0        3.050437   -1.003290    1.329322
      9          1           0        0.772324    0.312744    1.154367
     10          1           0        3.276304    1.933953    0.593357
     11          8           0        1.267600    0.759479   -0.798160
     12          8           0        1.198905   -1.556445   -0.566631
     13          8           0        3.895451   -1.758600   -1.003836
     14          8           0        4.846192   -0.027504    1.081531
     15          8           0        2.736768    1.294422    2.476737
     16          6           0        0.612807    2.402107    0.817825
     17          1           0        0.509243    2.529411    1.894452
     18          1           0       -0.388146    2.353437    0.378497
     19          8           0        1.308716    3.523439    0.343643
     20         16           0       -0.087958   -2.203266   -1.284155
     21          8           0       -0.193971   -3.534947   -0.730959
     22          8           0        0.025417   -1.985099   -2.715236
     23          6           0       -1.440855   -1.233830   -0.675823
     24          6           0       -2.134691   -1.674535    0.441255
     25          6           0       -1.777832   -0.057092   -1.329564
     26          6           0       -3.191720   -0.907928    0.913746
     27          1           0       -1.858013   -2.599463    0.924542
     28          6           0       -2.828387    0.700810   -0.832817
     29          1           0       -1.235997    0.258770   -2.207602
     30          6           0       -3.538209    0.280393    0.285020
     31          1           0       -4.358021    0.873957    0.660946
     32          6           0        4.136246   -2.037639   -2.363220
     33          1           0        3.209081   -2.185013   -2.924106
     34          1           0        4.713018   -1.237084   -2.836428
     35          1           0        4.711732   -2.959220   -2.401019
     36          6           0        5.484955   -1.170067    1.602752
     37          1           0        6.501431   -0.875885    1.856706
     38          1           0        4.983841   -1.522513    2.509768
     39          1           0        5.513934   -1.981275    0.875172
     40          6           0        3.625224    2.276162    2.958909
     41          1           0        3.495179    2.320611    4.038482
     42          1           0        4.660598    2.018537    2.730851
     43          1           0        3.395531    3.257320    2.532930
     44          6           0        1.119272    3.821995   -1.019983
     45          1           0        1.541629    4.810202   -1.192420
     46          1           0        0.054379    3.842488   -1.271848
     47          1           0        1.615666    3.101039   -1.671562
     48          6           0       -4.000218   -1.397232    2.079630
     49          9           0       -3.262095   -2.142104    2.909869
     50          9           0       -5.029153   -2.154965    1.675425
     51          9           0       -4.510906   -0.379796    2.782796
     52          6           0       -3.158735    2.014061   -1.477280
     53          9           0       -2.440698    3.015042   -0.933109
     54          9           0       -4.447384    2.331445   -1.323780
     55          9           0       -2.886206    2.004556   -2.785353
 ---------------------------------------------------------------------

 SCF Done:  E(RN12SX) =  -2297.20581562     A.U. after    1 cycles

 Isotropic polarizability for W=    0.000000      267.16 Bohr**3.
 End of Minotr F.D. properties file   721 does not exist.

                      1                      2                      3
                      A                      A                      A
 Frequencies --     10.5368                16.3033                19.0512
 Red. masses --      9.3436                16.8501                 6.1493
 Frc consts  --      0.0006                 0.0026                 0.0013
 IR Inten    --      0.1654                 0.0211                 0.6147

                      4                      5                      6
                      A                      A                      A
 Frequencies --     26.8571                33.1600                40.7951
 Red. masses --     11.5398                 3.6412                 4.4821
 Frc consts  --      0.0049                 0.0024                 0.0044
 IR Inten    --      0.0577                 0.8692                 1.6890

                      7                      8                      9
                      A                      A                      A
 Frequencies --     49.7333                51.7283                58.5595
 Red. masses --      4.5623                 3.6149                 5.8303
 Frc consts  --      0.0066                 0.0057                 0.0118
 IR Inten    --      4.1698                 0.7889                 0.8321

                     10                     11                     12
                      A                      A                      A
 Frequencies --     69.4231                72.9518                84.1185
 Red. masses --      3.4467                 4.2330                 3.5150
 Frc consts  --      0.0098                 0.0133                 0.0147
 IR Inten    --      5.0466                 0.1586                 1.7957

                     13                     14                     15
                      A                      A                      A
 Frequencies --     90.1940               100.2863               103.5341
 Red. masses --      2.1865                10.8695                 6.6554
 Frc consts  --      0.0105                 0.0644                 0.0420
 IR Inten    --      5.1589                 3.0159                 3.8442

                     16                     17                     18
                      A                      A                      A
 Frequencies --    114.0470               119.5246               151.7868
 Red. masses --      3.7561                 3.7033                 6.8806
 Frc consts  --      0.0288                 0.0312                 0.0934
 IR Inten    --      2.1733                 2.8148                 0.1738

                     19                     20                     21
                      A                      A                      A
 Frequencies --    156.2291               166.1439               172.2950
 Red. masses --      1.3721                 2.3747                 3.3531
 Frc consts  --      0.0197                 0.0386                 0.0586
 IR Inten    --      0.8515                 0.5494                 1.4398

                     22                     23                     24
                      A                      A                      A
 Frequencies --    179.4975               188.7399               194.4941
 Red. masses --      1.5024                 3.5682                 1.8431
 Frc consts  --      0.0285                 0.0749                 0.0411
 IR Inten    --      2.0283                 2.7866                 4.2409

                     25                     26                     27
                      A                      A                      A
 Frequencies --    204.3488               226.4702               240.5589
 Red. masses --      1.7697                 2.7462                11.9139
 Frc consts  --      0.0435                 0.0830                 0.4062
 IR Inten    --      0.3407                12.8483                 0.3057

                     28                     29                     30
                      A                      A                      A
 Frequencies --    247.2732               257.8880               260.1970
 Red. masses --      3.8365                 3.3618                 8.1964
 Frc consts  --      0.1382                 0.1317                 0.3269
 IR Inten    --      5.0148                11.2690                 8.3731

                     31                     32                     33
                      A                      A                      A
 Frequencies --    285.7008               290.1735               295.2709
 Red. masses --     10.4223                 5.2090                11.3113
 Frc consts  --      0.5012                 0.2584                 0.5810
 IR Inten    --      2.7220                10.7775                 3.0204

                     34                     35                     36
                      A                      A                      A
 Frequencies --    297.6384               316.7021               326.3912
 Red. masses --      7.4848                 5.4728                 3.9709
 Frc consts  --      0.3907                 0.3234                 0.2492
 IR Inten    --     11.5206                 0.2660                 4.4408

                     37                     38                     39
                      A                      A                      A
 Frequencies --    348.2681               355.1174               362.5331
 Red. masses --      6.8288                 6.2346                 5.3979
 Frc consts  --      0.4880                 0.4632                 0.4180
 IR Inten    --      0.8354                 2.6597                 8.9598

                     40                     41                     42
                      A                      A                      A
 Frequencies --    375.1687               417.7893               425.9206
 Red. masses --      9.3329                 9.9128                 8.6854
 Frc consts  --      0.7740                 1.0194                 0.9283
 IR Inten    --     13.8256                16.0987                 7.1555

                     43                     44                     45
                      A                      A                      A
 Frequencies --    444.9047               458.7332               468.7402
 Red. masses --      2.1503                 5.3090                 8.7672
 Frc consts  --      0.2508                 0.6582                 1.1349
 IR Inten    --      8.9263                12.9716                14.8840

                     46                     47                     48
                      A                      A                      A
 Frequencies --    477.6528               502.9322               506.0216
 Red. masses --      4.1169                 7.3926                11.6797
 Frc consts  --      0.5534                 1.1017                 1.7621
 IR Inten    --      6.5450                16.6466                 1.6718

                     49                     50                     51
                      A                      A                      A
 Frequencies --    529.1847               537.4569               546.3480
 Red. masses --      4.2994                10.8802                 5.5778
 Frc consts  --      0.7094                 1.8517                 0.9810
 IR Inten    --     29.6359                40.3179                 6.4377

                     52                     53                     54
                      A                      A                      A
 Frequencies --    573.9113               577.9074               590.1564
 Red. masses --      3.8700                14.9282                11.5798
 Frc consts  --      0.7510                 2.9375                 2.3762
 IR Inten    --     39.4020                17.3022               274.9171

                     55                     56                     57
                      A                      A                      A
 Frequencies --    614.2666               623.0103               642.2746
 Red. masses --      6.7909                 8.0549                 5.6145
 Frc consts  --      1.5097                 1.8421                 1.3646
 IR Inten    --     44.1654                 2.7703                15.0306

                     58                     59                     60
                      A                      A                      A
 Frequencies --    684.4335               689.2750               699.1942
 Red. masses --      7.4847                12.8417                 5.8194
 Frc consts  --      2.0658                 3.5947                 1.6762
 IR Inten    --      0.7738                62.5537                22.3824

                     61                     62                     63
                      A                      A                      A
 Frequencies --    715.6140               729.6945               747.0257
 Red. masses --      2.4978                 9.4410                 5.5889
 Frc consts  --      0.7536                 2.9618                 1.8376
 IR Inten    --     30.4190                 4.2479                50.7206

                     64                     65                     66
                      A                      A                      A
 Frequencies --    840.5035               861.5963               874.1102
 Red. masses --      6.2147                 4.6853                 7.3088
 Frc consts  --      2.5867                 2.0493                 3.2903
 IR Inten    --    154.0030                 8.4671               419.8069

                     67                     68                     69
                      A                      A                      A
 Frequencies --    877.4180               906.2829               925.3537
 Red. masses --     11.2839                 3.9251                 1.6495
 Frc consts  --      5.1182                 1.8995                 0.8322
 IR Inten    --     26.0638               154.0263                95.7036

                     70                     71                     72
                      A                      A                      A
 Frequencies --    954.9174               957.5917               970.5227
 Red. masses --      2.4192                 1.5009                 1.3755
 Frc consts  --      1.2998                 0.8109                 0.7633
 IR Inten    --     12.7597                12.2166                 6.7102

                     73                     74                     75
                      A                      A                      A
 Frequencies --   1000.9599              1008.4880              1022.6773
 Red. masses --      4.8068                 4.1185                 6.3701
 Frc consts  --      2.8376                 2.4679                 3.9253
 IR Inten    --     22.9291                51.7432                 2.8697

                     76                     77                     78
                      A                      A                      A
 Frequencies --   1041.8343              1058.2632              1070.3517
 Red. masses --      4.0148                 3.8811                 3.7858
 Frc consts  --      2.5675                 2.5609                 2.5554
 IR Inten    --     50.2031                10.2622               130.0474

                     79                     80                     81
                      A                      A                      A
 Frequencies --   1114.3754              1138.3624              1145.0901
 Red. masses --      2.9756                 8.5408                 2.6804
 Frc consts  --      2.1771                 6.5209                 2.0708
 IR Inten    --     15.5351                54.0027                75.1914

                     82                     83                     84
                      A                      A                      A
 Frequencies --   1150.9985              1154.2314              1154.9271
 Red. masses --      2.1817                 2.0293                 2.0709
 Frc consts  --      1.7029                 1.5929                 1.6275
 IR Inten    --     88.0283                23.7814                14.0531

                     85                     86                     87
                      A                      A                      A
 Frequencies --   1167.7414              1187.0734              1196.8317
 Red. masses --      2.4059                 5.2205                 3.0005
 Frc consts  --      1.9330                 4.3343                 2.5323
 IR Inten    --    148.5962               394.2524                72.6246

                     88                     89                     90
                      A                      A                      A
 Frequencies --   1199.8644              1201.0511              1202.9751
 Red. masses --      2.0357                 1.4122                 1.4196
 Frc consts  --      1.7267                 1.2002                 1.2104
 IR Inten    --    203.8630                28.5776                13.8322

                     91                     92                     93
                      A                      A                      A
 Frequencies --   1204.1129              1204.8999              1207.9418
 Red. masses --      1.6460                 3.5319                 1.3565
 Frc consts  --      1.4061                 3.0211                 1.1662
 IR Inten    --     69.3759               383.0655                19.8512

                     94                     95                     96
                      A                      A                      A
 Frequencies --   1215.3504              1223.2305              1225.0551
 Red. masses --      1.7030                12.2650                 3.1396
 Frc consts  --      1.4821                10.8127                 2.7761
 IR Inten    --     75.7598               321.5788                84.9583

                     97                     98                     99
                      A                      A                      A
 Frequencies --   1236.7438              1238.9882              1246.2045
 Red. masses --      2.6602                 2.6496                 1.8785
 Frc consts  --      2.3973                 2.3965                 1.7189
 IR Inten    --    140.7290               216.5083                92.6639

                    100                    101                    102
                      A                      A                      A
 Frequencies --   1250.5472              1257.0555              1257.9495
 Red. masses --      7.8788                 7.4719                 2.0608
 Frc consts  --      7.2595                 6.9564                 1.9214
 IR Inten    --    177.4119               273.7459                20.9628

                    103                    104                    105
                      A                      A                      A
 Frequencies --   1264.0261              1284.3423              1313.7797
 Red. masses --      2.5395                 1.8762                 2.9033
 Frc consts  --      2.3907                 1.8235                 2.9524
 IR Inten    --     98.5214                14.9893               707.2003

                    106                    107                    108
                      A                      A                      A
 Frequencies --   1321.1411              1326.1471              1358.3525
 Red. masses --      1.4834                 1.4257                 1.3401
 Frc consts  --      1.5255                 1.4773                 1.4568
 IR Inten    --      5.5219               107.2899                 6.3034

                    109                    110                    111
                      A                      A                      A
 Frequencies --   1362.4192              1381.2263              1391.8362
 Red. masses --      1.3377                 8.2727                 1.2212
 Frc consts  --      1.4630                 9.2988                 1.3938
 IR Inten    --     13.3035               262.8022                 7.3401

                    112                    113                    114
                      A                      A                      A
 Frequencies --   1392.3353              1404.2870              1411.4600
 Red. masses --      1.2843                 6.3181                 1.9650
 Frc consts  --      1.4670                 7.3408                 2.3064
 IR Inten    --     46.7432               181.0135                 4.0681

                    115                    116                    117
                      A                      A                      A
 Frequencies --   1412.6321              1423.4804              1434.0248
 Red. masses --      2.6168                 1.4916                 1.3062
 Frc consts  --      3.0767                 1.7808                 1.5826
 IR Inten    --      0.5083                11.8483                 9.1122

                    118                    119                    120
                      A                      A                      A
 Frequencies --   1444.7955              1451.0400              1463.4192
 Red. masses --      1.4138                 1.3100                 1.3743
 Frc consts  --      1.7388                 1.6251                 1.7341
 IR Inten    --     34.9160                12.4388                13.5637

                    121                    122                    123
                      A                      A                      A
 Frequencies --   1504.4573              1510.3534              1512.7541
 Red. masses --      1.0938                 1.1765                 1.1602
 Frc consts  --      1.4586                 1.5813                 1.5643
 IR Inten    --      3.0601                 0.9472                 3.1807

                    124                    125                    126
                      A                      A                      A
 Frequencies --   1513.3310              1514.5116              1520.8242
 Red. masses --      3.9683                 1.1173                 1.0525
 Frc consts  --      5.3545                 1.5099                 1.4342
 IR Inten    --      3.2799                 7.5986                 3.0832

                    127                    128                    129
                      A                      A                      A
 Frequencies --   1521.8602              1522.9112              1523.6028
 Red. masses --      4.2456                 1.0584                 1.0572
 Frc consts  --      5.7934                 1.4463                 1.4460
 IR Inten    --      0.0844                 5.5654                 9.5523

                    130                    131                    132
                      A                      A                      A
 Frequencies --   1529.2598              1533.4405              1543.3809
 Red. masses --      1.1363                 1.0972                 1.0517
 Frc consts  --      1.5657                 1.5201                 1.4760
 IR Inten    --      4.1590                 4.2707                14.1142

                    133                    134                    135
                      A                      A                      A
 Frequencies --   1547.8857              1549.2329              1551.6849
 Red. masses --      1.0481                 1.0508                 1.0585
 Frc consts  --      1.4796                 1.4859                 1.5016
 IR Inten    --      6.8692                12.0891                11.0475

                    136                    137                    138
                      A                      A                      A
 Frequencies --   1683.9914              1703.7109              3057.3942
 Red. masses --      6.5953                 6.2918                 1.0798
 Frc consts  --     11.0195                10.7601                 5.9469
 IR Inten    --     21.6571                24.7318                25.7682

                    139                    140                    141
                      A                      A                      A
 Frequencies --   3066.0893              3071.9840              3073.1927
 Red. masses --      1.0381                 1.0400                 1.0365
 Frc consts  --      5.7498                 5.7825                 5.7677
 IR Inten    --     68.2017                67.6391                67.8523

                    142                    143                    144
                      A                      A                      A
 Frequencies --   3075.0087              3089.6949              3090.2007
 Red. masses --      1.0355                 1.0829                 1.0793
 Frc consts  --      5.7689                 6.0907                 6.0724
 IR Inten    --     52.2607                23.4741                 3.2251

                    145                    146                    147
                      A                      A                      A
 Frequencies --   3103.0795              3114.1588              3131.0389
 Red. masses --      1.0684                 1.0848                 1.1062
 Frc consts  --      6.0613                 6.1982                 6.3895
 IR Inten    --     37.7061                61.7389                56.3585

                    148                    149                    150
                      A                      A                      A
 Frequencies --   3151.3683              3153.3486              3159.3241
 Red. masses --      1.1013                 1.1015                 1.0948
 Frc consts  --      6.4438                 6.4532                 6.4385
 IR Inten    --     41.2574                48.0304                46.9633

                    151                    152                    153
                      A                      A                      A
 Frequencies --   3178.6062              3193.9077              3198.5519
 Red. masses --      1.1008                 1.1042                 1.1040
 Frc consts  --      6.5531                 6.6366                 6.6546
 IR Inten    --     17.1624                41.5825                34.2762

                    154                    155                    156
                      A                      A                      A
 Frequencies --   3201.0310              3202.1292              3207.5282
 Red. masses --      1.1057                 1.0888                 1.0996
 Frc consts  --      6.6753                 6.5777                 6.6652
 IR Inten    --     30.4693                14.1248                22.7604

                    157                    158                    159
                      A                      A                      A
 Frequencies --   3292.2757              3295.5761              3301.4611
 Red. masses --      1.0924                 1.0924                 1.0925
 Frc consts  --      6.9762                 6.9904                 7.0157
 IR Inten    --      2.2185                 8.8178                 6.4455

 - Thermochemistry -
 -------------------
 Temperature   298.150 Kelvin.  Pressure   1.00000 Atm.
 Atom     1 has atomic number  6 and mass  12.00000

 Molecular mass:   512.09396 amu.
 Principal axes and moments of inertia in atomic units:
                           1         2         3
     Eigenvalues --  ******************************
           X            0.99994  -0.00087   0.01096
           Y            0.00002   0.99699   0.07749
           Z           -0.01099  -0.07749   0.99693
 This molecule is an asymmetric top.
 Rotational symmetry number  1.
 Warning -- assumption of classical behavior for rotation
           may cause significant error
 Rotational temperatures (Kelvin)      0.00733     0.00395     0.00362
 Rotational constants (GHZ):           0.15271     0.08235     0.07539
 Zero-point vibrational energy    1099664.2 (Joules/Mol)
                                  262.82605 (Kcal/Mol)
 Warning -- explicit consideration of  55 degrees of freedom as
           vibrations may cause significant error
 Vibrational temperatures:     15.16    23.46    27.41    38.64    47.71
          (Kelvin)             58.70    71.56    74.43    84.25    99.88
                              104.96   121.03   129.77   144.29   148.96
                              164.09   171.97   218.39   224.78   239.04
                              247.89   258.26   271.55   279.83   294.01
                              325.84   346.11   355.77   371.04   374.37
                              411.06   417.49   424.83   428.24   455.66
                              469.60   501.08   510.93   521.60   539.78
                              601.11   612.80   640.12   660.01   674.41
                              687.24   723.61   728.05   761.38   773.28
                              786.07   825.73   831.48   849.10   883.79
                              896.37   924.09   984.75   991.71  1005.98
                             1029.61  1049.87  1074.80  1209.30  1239.64
                             1257.65  1262.41  1303.94  1331.38  1373.91
                             1377.76  1396.37  1440.16  1450.99  1471.40
                             1498.97  1522.60  1540.00  1603.34  1637.85
                             1647.53  1656.03  1660.68  1661.68  1680.12
                             1707.93  1721.97  1726.34  1728.04  1730.81
                             1732.45  1733.58  1737.96  1748.62  1759.96
                             1762.58  1779.40  1782.63  1793.01  1799.26
                             1808.62  1809.91  1818.65  1847.88  1890.24
                             1900.83  1908.03  1954.37  1960.22  1987.28
                             2002.54  2003.26  2020.46  2030.78  2032.46
                             2048.07  2063.24  2078.74  2087.72  2105.53
                             2164.58  2173.06  2176.52  2177.35  2179.04
                             2188.13  2189.62  2191.13  2192.12  2200.26
                             2206.28  2220.58  2227.06  2229.00  2232.53
                             2422.89  2451.26  4398.91  4411.42  4419.90
                             4421.64  4424.25  4445.38  4446.11  4464.64
                             4480.58  4504.87  4534.12  4536.97  4545.56
                             4573.31  4595.32  4602.00  4605.57  4607.15
                             4614.92  4736.85  4741.60  4750.07

 Zero-point correction=                           0.418840 (Hartree/Particle)
 Thermal correction to Energy=                    0.452152
 Thermal correction to Enthalpy=                  0.453096
 Thermal correction to Gibbs Free Energy=         0.348857
 Sum of electronic and zero-point Energies=          -2296.786976
 Sum of electronic and thermal Energies=             -2296.753664
 Sum of electronic and thermal Enthalpies=           -2296.752719
 Sum of electronic and thermal Free Energies=        -2296.856959

                     E (Thermal)             CV                S
                      KCal/Mol        Cal/Mol-Kelvin    Cal/Mol-Kelvin
 Total                  283.730            119.239            219.390
 Electronic               0.000              0.000              0.000
 Translational            0.889              2.981             44.587
 Rotational               0.889              2.981             37.070
 Vibrational            281.952            113.278            137.734
 Vibration     1          0.593              1.987              7.907
 Vibration     2          0.593              1.986              7.040
 Vibration     3          0.593              1.986              6.731
 Vibration     4          0.593              1.984              6.049
 Vibration     5          0.594              1.983              5.631
 Vibration     6          0.594              1.981              5.220
 Vibration     7          0.595              1.978              4.828
 Vibration     8          0.596              1.977              4.750
 Vibration     9          0.596              1.974              4.505
 Vibration    10          0.598              1.969              4.170
 Vibration    11          0.599              1.967              4.072
 Vibration    12          0.601              1.960              3.792
 Vibration    13          0.602              1.956              3.656
 Vibration    14          0.604              1.949              3.449
 Vibration    15          0.605              1.946              3.387
 Vibration    16          0.607              1.938              3.199
 Vibration    17          0.609              1.933              3.108
 Vibration    18          0.619              1.901              2.650
 Vibration    19          0.620              1.896              2.595
 Vibration    20          0.624              1.884              2.479
 Vibration    21          0.626              1.877              2.410
 Vibration    22          0.629              1.867              2.334
 Vibration    23          0.633              1.855              2.240
 Vibration    24          0.635              1.848              2.185
 Vibration    25          0.640              1.834              2.094
 Vibration    26          0.650              1.801              1.907
 Vibration    27          0.658              1.778              1.799
 Vibration    28          0.661              1.767              1.750
 Vibration    29          0.667              1.749              1.676
 Vibration    30          0.668              1.745              1.660
 Vibration    31          0.683              1.700              1.499
 Vibration    32          0.686              1.692              1.473
 Vibration    33          0.689              1.683              1.444
 Vibration    34          0.691              1.678              1.430
 Vibration    35          0.704              1.642              1.327
 Vibration    36          0.710              1.623              1.278
 Vibration    37          0.726              1.579              1.174
 Vibration    38          0.731              1.565              1.143
 Vibration    39          0.736              1.549              1.111
 Vibration    40          0.746              1.523              1.059
 Vibration    41          0.781              1.432              0.900
 Vibration    42          0.788              1.414              0.872
 Vibration    43          0.804              1.372              0.811
 Vibration    44          0.817              1.342              0.770
 Vibration    45          0.826              1.319              0.741
 Vibration    46          0.834              1.300              0.716
 Vibration    47          0.858              1.244              0.651
 Vibration    48          0.861              1.237              0.643
 Vibration    49          0.884              1.185              0.589
 Vibration    50          0.892              1.167              0.571
 Vibration    51          0.902              1.148              0.552
 Vibration    52          0.930              1.088              0.497
 Vibration    53          0.934              1.079              0.489
 Vibration    54          0.947              1.053              0.467
 Vibration    55          0.974              1.002              0.426

                           ! Non-Optimized Parameters !
 Normal termination of Gaussian 16 at Wed Jun  5 19:46:39 2019.
