 Gaussian 16, Revision A.03,
 Gaussian 16:  AS64L-G16RevA.03 25-Dec-2016

 ----------------------------------------------------------------------
 #p opt freq=noraman pop=none 6-31g* scrf=(pcm,solvent=tetrahydrofuran)
  mpw1pw91
 ----------------------------------------------------------------------

 -----
 title
 -----
 Symbolic Z-matrix:
 Charge =  0 Multiplicity = 1

 SCF Done:  E(RmPW1PW91) =  -2297.64736394     A.U. after   13 cycles
 Optimization completed.
    -- Stationary point found.
 Normal termination of Gaussian 16 at Wed Jun  5 18:25:10 2019.

 ----------------------------------------------------------------------
 #P Geom=AllCheck Guess=TCheck SCRF=Check GenChk RmPW1PW91/6-31G(d) Fre
 q
 ----------------------------------------------------------------------

 Structure from the checkpoint file:  "/scratch/users/ekwan/clay_new-glu_gluC6-bisCF3-sm-mpw1pw91-631gd-pcm_thf/Gau-20312.chk"
 -----
 title
 -----
 Charge =  0 Multiplicity = 1

                         Standard orientation:
 ---------------------------------------------------------------------
 Center     Atomic      Atomic             Coordinates (Angstroms)
 Number     Number       Type             X           Y           Z
 ---------------------------------------------------------------------
      1          6           0        3.513225   -0.223941    0.715819
      2          6           0        3.341578   -0.490871   -0.777400
      3          6           0        1.868492   -0.375931   -1.191476
      4          6           0        1.361798    1.091958    0.613910
      5          6           0        2.810896    1.075242    1.100041
      6          1           0        1.746373   -0.432197   -2.272704
      7          1           0        3.872518    0.303608   -1.324408
      8          1           0        3.060899   -1.047097    1.284999
      9          1           0        0.798916    0.322198    1.158563
     10          1           0        3.341559    1.915213    0.635239
     11          8           0        1.290347    0.813487   -0.792861
     12          8           0        1.189731   -1.514767   -0.601365
     13          8           0        3.886035   -1.744997   -1.083303
     14          8           0        4.878583   -0.091656    1.044055
     15          8           0        2.785602    1.217256    2.503807
     16          6           0        0.677359    2.426226    0.870661
     17          1           0        0.572915    2.529020    1.953411
     18          1           0       -0.326761    2.406851    0.427024
     19          8           0        1.395623    3.554096    0.431269
     20         16           0       -0.099633   -2.143658   -1.352921
     21          8           0       -0.193114   -3.498490   -0.848562
     22          8           0        0.008100   -1.869197   -2.777114
     23          6           0       -1.464527   -1.207741   -0.703987
     24          6           0       -2.119326   -1.672649    0.429801
     25          6           0       -1.847112   -0.035859   -1.345762
     26          6           0       -3.185061   -0.933341    0.933032
     27          1           0       -1.806817   -2.596146    0.901845
     28          6           0       -2.907938    0.692900   -0.820135
     29          1           0       -1.332530    0.296813   -2.238286
     30          6           0       -3.579158    0.249367    0.315706
     31          1           0       -4.407927    0.821063    0.715206
     32          6           0        4.207801   -1.928956   -2.447828
     33          1           0        3.314837   -1.980679   -3.082517
     34          1           0        4.859548   -1.125521   -2.814397
     35          1           0        4.738186   -2.879220   -2.518347
     36          6           0        5.471741   -1.258725    1.578626
     37          1           0        6.509350   -1.005669    1.804646
     38          1           0        4.972490   -1.567608    2.506335
     39          1           0        5.447367   -2.087459    0.865279
     40          6           0        3.684011    2.188011    3.005350
     41          1           0        3.560235    2.198447    4.089958
     42          1           0        4.720443    1.934736    2.761646
     43          1           0        3.451630    3.184596    2.609742
     44          6           0        1.206273    3.884464   -0.930227
     45          1           0        1.649816    4.870955   -1.078964
     46          1           0        0.137822    3.933408   -1.178929
     47          1           0        1.688662    3.167428   -1.601714
     48          6           0       -3.952991   -1.449575    2.119871
     49          9           0       -3.169377   -2.163702    2.939795
     50          9           0       -4.961417   -2.249255    1.736417
     51          9           0       -4.489196   -0.448405    2.832304
     52          6           0       -3.292453    2.002079   -1.452683
     53          9           0       -2.601413    3.023695   -0.909295
     54          9           0       -4.592609    2.273411   -1.281047
     55          9           0       -3.038244    2.010255   -2.767531
 ---------------------------------------------------------------------

 SCF Done:  E(RmPW1PW91) =  -2297.64736394     A.U. after    1 cycles

 Isotropic polarizability for W=    0.000000      271.39 Bohr**3.
 End of Minotr F.D. properties file   721 does not exist.

                      1                      2                      3
                      A                      A                      A
 Frequencies --     12.9853                16.3219                21.0541
 Red. masses --      9.6668                 6.2173                17.1925
 Frc consts  --      0.0010                 0.0010                 0.0045
 IR Inten    --      0.0687                 0.3209                 0.0065

                      4                      5                      6
                      A                      A                      A
 Frequencies --     23.6817                32.2261                35.6000
 Red. masses --     11.3914                 3.8007                 4.7816
 Frc consts  --      0.0038                 0.0023                 0.0036
 IR Inten    --      0.0160                 1.1777                 1.1400

                      7                      8                      9
                      A                      A                      A
 Frequencies --     44.0920                47.5295                51.9430
 Red. masses --      4.3875                 3.1821                 4.8914
 Frc consts  --      0.0050                 0.0042                 0.0078
 IR Inten    --      1.6627                 1.9863                 0.5475

                     10                     11                     12
                      A                      A                      A
 Frequencies --     61.0345                68.3342                78.2577
 Red. masses --      3.1308                 4.0379                 3.3457
 Frc consts  --      0.0069                 0.0111                 0.0121
 IR Inten    --      8.5477                 0.4080                 0.7827

                     13                     14                     15
                      A                      A                      A
 Frequencies --     82.8966                99.8252               100.8235
 Red. masses --      2.7018                10.1745                 7.3123
 Frc consts  --      0.0109                 0.0597                 0.0438
 IR Inten    --      5.2769                 2.3048                 4.3271

                     16                     17                     18
                      A                      A                      A
 Frequencies --    107.3565               116.1188               150.2589
 Red. masses --      2.6321                 7.2011                 7.4586
 Frc consts  --      0.0179                 0.0572                 0.0992
 IR Inten    --      2.5772                 1.9090                 0.1327

                     19                     20                     21
                      A                      A                      A
 Frequencies --    153.5335               161.1145               168.4537
 Red. masses --      1.3911                 1.8727                 2.4705
 Frc consts  --      0.0193                 0.0286                 0.0413
 IR Inten    --      0.1119                 0.6112                 0.7723

                     22                     23                     24
                      A                      A                      A
 Frequencies --    178.4972               184.6122               191.9010
 Red. masses --      1.7163                 3.0231                 2.0932
 Frc consts  --      0.0322                 0.0607                 0.0454
 IR Inten    --      2.5376                 4.2920                 1.6928

                     25                     26                     27
                      A                      A                      A
 Frequencies --    196.4824               224.1871               236.6839
 Red. masses --      1.9431                 3.1543                12.0340
 Frc consts  --      0.0442                 0.0934                 0.3972
 IR Inten    --      0.1698                12.3087                 0.1118

                     28                     29                     30
                      A                      A                      A
 Frequencies --    245.2350               255.0650               259.1493
 Red. masses --      3.8080                 3.6200                 6.8543
 Frc consts  --      0.1349                 0.1388                 0.2712
 IR Inten    --      7.0254                 9.6020                10.5133

                     31                     32                     33
                      A                      A                      A
 Frequencies --    282.9281               286.9341               292.0578
 Red. masses --     10.7666                 4.9230                 9.4551
 Frc consts  --      0.5078                 0.2388                 0.4752
 IR Inten    --      3.2192                 8.5145                 7.6052

                     34                     35                     36
                      A                      A                      A
 Frequencies --    294.6182               313.7934               324.0410
 Red. masses --      8.8123                 5.4523                 4.0916
 Frc consts  --      0.4507                 0.3163                 0.2531
 IR Inten    --      8.3555                 0.1666                 5.0615

                     37                     38                     39
                      A                      A                      A
 Frequencies --    345.1689               353.9281               359.1516
 Red. masses --      7.0740                 6.3916                 4.9407
 Frc consts  --      0.4966                 0.4717                 0.3755
 IR Inten    --      0.6545                 2.7732                 6.5520

                     40                     41                     42
                      A                      A                      A
 Frequencies --    369.3261               414.5473               422.1559
 Red. masses --      9.4536                10.0677                 8.6966
 Frc consts  --      0.7597                 1.0194                 0.9132
 IR Inten    --     14.1401                14.6508                 6.1250

                     43                     44                     45
                      A                      A                      A
 Frequencies --    441.3154               455.0158               466.2435
 Red. masses --      2.1025                 5.3700                 8.5502
 Frc consts  --      0.2413                 0.6551                 1.0951
 IR Inten    --      6.3711                11.8754                13.5926

                     46                     47                     48
                      A                      A                      A
 Frequencies --    473.5229               497.7082               503.2501
 Red. masses --      4.2309                 7.6417                11.9473
 Frc consts  --      0.5589                 1.1153                 1.7827
 IR Inten    --      9.4485                19.4598                 0.8099

                     49                     50                     51
                      A                      A                      A
 Frequencies --    526.3779               534.2332               544.1146
 Red. masses --      4.7018                10.8796                 4.8070
 Frc consts  --      0.7676                 1.8295                 0.8385
 IR Inten    --     37.7951                31.8151                11.4919

                     52                     53                     54
                      A                      A                      A
 Frequencies --    571.2041               573.4817               585.4699
 Red. masses --      3.7654                15.2437                11.7178
 Frc consts  --      0.7238                 2.9538                 2.3665
 IR Inten    --     37.3410                18.1910               274.3576

                     55                     56                     57
                      A                      A                      A
 Frequencies --    609.0328               617.5656               635.9174
 Red. masses --      6.8214                 8.1202                 5.6753
 Frc consts  --      1.4907                 1.8247                 1.3522
 IR Inten    --     41.4169                 2.3944                 9.6840

                     58                     59                     60
                      A                      A                      A
 Frequencies --    680.5289               685.1736               691.4862
 Red. masses --      7.6330                12.6934                 5.8746
 Frc consts  --      2.0827                 3.5110                 1.6550
 IR Inten    --      0.9877                60.8439                32.7329

                     61                     62                     63
                      A                      A                      A
 Frequencies --    712.3566               724.9521               740.0201
 Red. masses --      2.5614                 9.0389                 5.7776
 Frc consts  --      0.7658                 2.7989                 1.8642
 IR Inten    --     30.0540                 6.5331                61.6464

                     64                     65                     66
                      A                      A                      A
 Frequencies --    829.6741               852.6392               858.9070
 Red. masses --      7.1444                 3.7255                11.6431
 Frc consts  --      2.8976                 1.5957                 5.0607
 IR Inten    --    310.6397                32.2993               356.1525

                     67                     68                     69
                      A                      A                      A
 Frequencies --    870.8772               897.2381               920.4837
 Red. masses --     11.9762                 3.8682                 1.5876
 Frc consts  --      5.3516                 1.8347                 0.7926
 IR Inten    --     22.2570                74.0063                76.7724

                     70                     71                     72
                      A                      A                      A
 Frequencies --    944.1586               951.9670               965.7659
 Red. masses --      2.6950                 1.4062                 1.3721
 Frc consts  --      1.4155                 0.7508                 0.7540
 IR Inten    --     21.7397                 3.4198                 8.2568

                     73                     74                     75
                      A                      A                      A
 Frequencies --    989.4440               997.4130              1019.3288
 Red. masses --      4.6866                 4.0996                 6.3459
 Frc consts  --      2.7033                 2.4029                 3.8848
 IR Inten    --     12.2974                46.6443                 4.4418

                     76                     77                     78
                      A                      A                      A
 Frequencies --   1030.4821              1045.6427              1060.3682
 Red. masses --      3.9856                 4.0204                 3.6602
 Frc consts  --      2.4936                 2.5899                 2.4248
 IR Inten    --     47.8636                11.0400               134.3374

                     79                     80                     81
                      A                      A                      A
 Frequencies --   1102.0692              1131.1949              1134.5719
 Red. masses --      2.9672                 8.5873                 2.8119
 Frc consts  --      2.1233                 6.4742                 2.1326
 IR Inten    --     16.2268                54.9526               102.4480

                     82                     83                     84
                      A                      A                      A
 Frequencies --   1143.1571              1145.3730              1146.6196
 Red. masses --      2.1678                 2.3118                 1.8838
 Frc consts  --      1.6691                 1.7869                 1.4592
 IR Inten    --     82.2907                 9.8126                23.9188

                     85                     86                     87
                      A                      A                      A
 Frequencies --   1156.3923              1177.0890              1180.4377
 Red. masses --      2.6754                 3.6108                 5.1413
 Frc consts  --      2.1079                 2.9476                 4.2209
 IR Inten    --    199.8186                36.2602               392.3280

                     88                     89                     90
                      A                      A                      A
 Frequencies --   1182.7254              1189.1492              1191.0017
 Red. masses --      3.2656                 1.3407                 1.2874
 Frc consts  --      2.6914                 1.1170                 1.0759
 IR Inten    --    365.2228                12.1804                 4.4414

                     91                     92                     93
                      A                      A                      A
 Frequencies --   1193.2612              1195.7799              1196.5960
 Red. masses --      1.4083                 2.9295                 1.8374
 Frc consts  --      1.1814                 2.4680                 1.5500
 IR Inten    --     11.1889               273.0551               120.1106

                     94                     95                     96
                      A                      A                      A
 Frequencies --   1201.5137              1209.4520              1210.1970
 Red. masses --      2.1179                 3.4194                 9.3382
 Frc consts  --      1.8014                 2.9469                 8.0580
 IR Inten    --     63.3438               127.2876               328.8662

                     97                     98                     99
                      A                      A                      A
 Frequencies --   1219.9065              1224.0266              1234.3104
 Red. masses --      4.4551                 1.6210                 1.6434
 Frc consts  --      3.9063                 1.4309                 1.4752
 IR Inten    --    170.6454               131.7499                33.8965

                    100                    101                    102
                      A                      A                      A
 Frequencies --   1236.9988              1242.1757              1245.8650
 Red. masses --      7.8602                 7.2439                 1.9243
 Frc consts  --      7.0863                 6.5855                 1.7598
 IR Inten    --    168.0765               290.1864                 9.9054

                    103                    104                    105
                      A                      A                      A
 Frequencies --   1249.3633              1275.5092              1304.4030
 Red. masses --      1.9368                 1.8349                 2.7741
 Frc consts  --      1.7812                 1.7589                 2.7810
 IR Inten    --     68.3635                 9.9940               677.8975

                    106                    107                    108
                      A                      A                      A
 Frequencies --   1313.1349              1316.0563              1350.5164
 Red. masses --      1.4834                 1.4726                 1.3090
 Frc consts  --      1.5070                 1.5027                 1.4067
 IR Inten    --      4.6568               133.2736                 4.8281

                    109                    110                    111
                      A                      A                      A
 Frequencies --   1355.3696              1373.1558              1379.6209
 Red. masses --      1.3543                 4.8370                 1.2471
 Frc consts  --      1.4658                 5.3736                 1.3985
 IR Inten    --     11.4534               241.0184                15.8973

                    112                    113                    114
                      A                      A                      A
 Frequencies --   1381.6901              1396.4111              1400.6825
 Red. masses --      1.3798                 6.3798                 1.7807
 Frc consts  --      1.5520                 7.3297                 2.0584
 IR Inten    --     59.7319               181.7057                 1.3166

                    115                    116                    117
                      A                      A                      A
 Frequencies --   1402.9393              1412.9020              1424.3505
 Red. masses --      2.7339                 1.5296                 1.3211
 Frc consts  --      3.1704                 1.7991                 1.5791
 IR Inten    --      2.0191                22.1687                 8.0418

                    118                    119                    120
                      A                      A                      A
 Frequencies --   1436.3660              1441.4693              1453.8513
 Red. masses --      1.4648                 1.3246                 1.3766
 Frc consts  --      1.7805                 1.6216                 1.7143
 IR Inten    --     36.0413                10.8835                13.3381

                    121                    122                    123
                      A                      A                      A
 Frequencies --   1493.4410              1500.3321              1502.2430
 Red. masses --      1.0905                 1.1753                 1.1703
 Frc consts  --      1.4330                 1.5587                 1.5561
 IR Inten    --      3.3462                 0.5094                 1.2123

                    124                    125                    126
                      A                      A                      A
 Frequencies --   1505.3603              1505.9499              1513.5691
 Red. masses --      3.9878                 1.1250                 1.0520
 Frc consts  --      5.3243                 1.5032                 1.4200
 IR Inten    --      2.9705                 6.6592                 3.8714

                    127                    128                    129
                      A                      A                      A
 Frequencies --   1513.6872              1514.8377              1515.2217
 Red. masses --      1.0761                 4.1523                 1.0562
 Frc consts  --      1.4527                 5.6140                 1.4287
 IR Inten    --     14.6699                 0.3979                 2.2046

                    130                    131                    132
                      A                      A                      A
 Frequencies --   1519.6383              1524.4965              1533.8604
 Red. masses --      1.1275                 1.0836                 1.0550
 Frc consts  --      1.5341                 1.4838                 1.4625
 IR Inten    --      1.4781                 4.9677                13.6021

                    133                    134                    135
                      A                      A                      A
 Frequencies --   1539.7704              1540.5004              1541.9897
 Red. masses --      1.0498                 1.0485                 1.0572
 Frc consts  --      1.4664                 1.4661                 1.4811
 IR Inten    --      9.8176                 7.9576                11.0729

                    136                    137                    138
                      A                      A                      A
 Frequencies --   1677.1195              1697.7440              3034.5100
 Red. masses --      6.5926                 6.3240                 1.0814
 Frc consts  --     10.9254                10.7396                 5.8671
 IR Inten    --     20.0404                23.7624                25.5562

                    139                    140                    141
                      A                      A                      A
 Frequencies --   3045.7249              3049.0811              3049.3354
 Red. masses --      1.0360                 1.0382                 1.0373
 Frc consts  --      5.6625                 5.6867                 5.6829
 IR Inten    --     75.8248               111.8725                14.1346

                    142                    143                    144
                      A                      A                      A
 Frequencies --   3053.4741              3064.1445              3067.3933
 Red. masses --      1.0350                 1.0731                 1.0831
 Frc consts  --      5.6858                 5.9360                 6.0040
 IR Inten    --     67.2088                12.3892                19.7625

                    145                    146                    147
                      A                      A                      A
 Frequencies --   3073.7286              3088.8546              3110.0185
 Red. masses --      1.0756                 1.0849                 1.1061
 Frc consts  --      5.9873                 6.0987                 6.3032
 IR Inten    --     40.7896                63.4778                60.8212

                    148                    149                    150
                      A                      A                      A
 Frequencies --   3126.1015              3130.9823              3131.9577
 Red. masses --      1.0995                 1.1024                 1.0973
 Frc consts  --      6.3305                 6.3672                 6.3418
 IR Inten    --     46.8214                56.9925                41.4759

                    151                    152                    153
                      A                      A                      A
 Frequencies --   3153.0704              3171.6134              3174.9087
 Red. masses --      1.0993                 1.1038                 1.1038
 Frc consts  --      6.4390                 6.5417                 6.5555
 IR Inten    --     19.7547                43.6193                37.1992

                    154                    155                    156
                      A                      A                      A
 Frequencies --   3176.0862              3176.9512              3183.9408
 Red. masses --      1.1047                 1.0882                 1.1001
 Frc consts  --      6.5658                 6.4712                 6.5704
 IR Inten    --     34.4830                12.5685                27.0954

                    157                    158                    159
                      A                      A                      A
 Frequencies --   3267.8283              3270.1979              3275.2196
 Red. masses --      1.0924                 1.0923                 1.0923
 Frc consts  --      6.8730                 6.8827                 6.9037
 IR Inten    --      1.4863                 7.1045                 5.4924

 - Thermochemistry -
 -------------------
 Temperature   298.150 Kelvin.  Pressure   1.00000 Atm.
 Atom     1 has atomic number  6 and mass  12.00000

 Molecular mass:   512.09396 amu.
 Principal axes and moments of inertia in atomic units:
                           1         2         3
     Eigenvalues --  ******************************
           X            0.99994  -0.00050   0.01050
           Y           -0.00040   0.99633   0.08557
           Z           -0.01050  -0.08557   0.99628
 This molecule is an asymmetric top.
 Rotational symmetry number  1.
 Warning -- assumption of classical behavior for rotation
           may cause significant error
 Rotational temperatures (Kelvin)      0.00727     0.00387     0.00358
 Rotational constants (GHZ):           0.15156     0.08073     0.07461
 Zero-point vibrational energy    1090634.2 (Joules/Mol)
                                  260.66784 (Kcal/Mol)
 Warning -- explicit consideration of  56 degrees of freedom as
           vibrations may cause significant error
 Vibrational temperatures:     18.68    23.48    30.29    34.07    46.37
          (Kelvin)             51.22    63.44    68.38    74.73    87.82
                               98.32   112.60   119.27   143.63   145.06
                              154.46   167.07   216.19   220.90   231.81
                              242.37   256.82   265.62   276.10   282.69
                              322.56   340.54   352.84   366.98   372.86
                              407.07   412.83   420.21   423.89   451.48
                              466.22   496.62   509.22   516.74   531.38
                              596.44   607.39   634.95   654.67   670.82
                              681.29   716.09   724.06   757.34   768.64
                              782.86   821.84   825.11   842.36   876.26
                              888.54   914.94   979.13   985.81   994.89
                             1024.92  1043.04  1064.72  1193.72  1226.76
                             1235.78  1253.00  1290.93  1324.37  1358.43
                             1369.67  1389.52  1423.59  1435.05  1466.59
                             1482.63  1504.45  1525.63  1585.63  1627.54
                             1632.40  1644.75  1647.94  1649.73  1663.79
                             1693.57  1698.39  1701.68  1710.92  1713.59
                             1716.84  1720.46  1721.63  1728.71  1740.13
                             1741.20  1755.17  1761.10  1775.90  1779.77
                             1787.21  1792.52  1797.56  1835.17  1876.74
                             1889.31  1893.51  1943.09  1950.07  1975.66
                             1984.97  1987.94  2009.12  2015.27  2018.52
                             2032.85  2049.32  2066.61  2073.95  2091.77
                             2148.73  2158.64  2161.39  2165.88  2166.73
                             2177.69  2177.86  2179.51  2180.07  2186.42
                             2193.41  2206.88  2215.39  2216.44  2218.58
                             2413.00  2442.67  4365.98  4382.12  4386.95
                             4387.31  4393.27  4408.62  4413.29  4422.41
                             4444.17  4474.62  4497.76  4504.79  4506.19
                             4536.57  4563.24  4567.99  4569.68  4570.92
                             4580.98  4701.68  4705.09  4712.31

 Zero-point correction=                           0.415401 (Hartree/Particle)
 Thermal correction to Energy=                    0.449044
 Thermal correction to Enthalpy=                  0.449989
 Thermal correction to Gibbs Free Energy=         0.344594
 Sum of electronic and zero-point Energies=          -2297.231963
 Sum of electronic and thermal Energies=             -2297.198319
 Sum of electronic and thermal Enthalpies=           -2297.197375
 Sum of electronic and thermal Free Energies=        -2297.302770

                     E (Thermal)             CV                S
                      KCal/Mol        Cal/Mol-Kelvin    Cal/Mol-Kelvin
 Total                  281.780            120.055            221.822
 Electronic               0.000              0.000              0.000
 Translational            0.889              2.981             44.587
 Rotational               0.889              2.981             37.108
 Vibrational            280.002            114.094            140.128
 Vibration     1          0.593              1.987              7.492
 Vibration     2          0.593              1.986              7.038
 Vibration     3          0.593              1.985              6.532
 Vibration     4          0.593              1.985              6.299
 Vibration     5          0.594              1.983              5.687
 Vibration     6          0.594              1.982              5.490
 Vibration     7          0.595              1.980              5.066
 Vibration     8          0.595              1.979              4.918
 Vibration     9          0.596              1.977              4.742
 Vibration    10          0.597              1.973              4.423
 Vibration    11          0.598              1.969              4.201
 Vibration    12          0.600              1.964              3.934
 Vibration    13          0.600              1.961              3.821
 Vibration    14          0.604              1.949              3.458
 Vibration    15          0.604              1.948              3.438
 Vibration    16          0.606              1.943              3.316
 Vibration    17          0.608              1.936              3.164
 Vibration    18          0.618              1.902              2.669
 Vibration    19          0.619              1.899              2.628
 Vibration    20          0.622              1.890              2.537
 Vibration    21          0.625              1.881              2.453
 Vibration    22          0.629              1.869              2.344
 Vibration    23          0.631              1.861              2.281
 Vibration    24          0.634              1.851              2.209
 Vibration    25          0.636              1.845              2.166
 Vibration    26          0.649              1.804              1.925
 Vibration    27          0.656              1.785              1.828
 Vibration    28          0.660              1.771              1.765
 Vibration    29          0.665              1.754              1.695
 Vibration    30          0.668              1.747              1.667
 Vibration    31          0.682              1.705              1.516
 Vibration    32          0.684              1.698              1.492
 Vibration    33          0.687              1.689              1.462
 Vibration    34          0.689              1.684              1.447
 Vibration    35          0.702              1.647              1.342
 Vibration    36          0.709              1.627              1.290
 Vibration    37          0.724              1.585              1.188
 Vibration    38          0.730              1.567              1.149
 Vibration    39          0.734              1.556              1.126
 Vibration    40          0.742              1.535              1.083
 Vibration    41          0.778              1.439              0.911
 Vibration    42          0.784              1.422              0.885
 Vibration    43          0.801              1.380              0.822
 Vibration    44          0.813              1.350              0.781
 Vibration    45          0.824              1.325              0.748
 Vibration    46          0.830              1.309              0.728
 Vibration    47          0.853              1.255              0.664
 Vibration    48          0.859              1.243              0.650
 Vibration    49          0.881              1.192              0.595
 Vibration    50          0.889              1.174              0.578
 Vibration    51          0.899              1.153              0.557
 Vibration    52          0.927              1.094              0.502
 Vibration    53          0.930              1.089              0.498
 Vibration    54          0.942              1.063              0.475
 Vibration    55          0.968              1.013              0.434
 Vibration    56          0.977              0.995              0.420

                           ! Non-Optimized Parameters !
 Normal termination of Gaussian 16 at Wed Jun  5 19:09:56 2019.
