 Gaussian 16, Revision A.03,
 Gaussian 16:  AS64L-G16RevA.03 25-Dec-2016

 ----------------------------------------------------------------------
 #p opt freq=noraman tpsstpss/6-31g(d) scrf=(solvent=tetrahydrofuran,pc
 m) pop=none empiricaldispersion=gd3bj
 ----------------------------------------------------------------------

 -----
 title
 -----
 Symbolic Z-matrix:
 Charge =  0 Multiplicity = 1

 SCF Done:  E(RTPSS-TPSS) =  -2298.42125884     A.U. after   14 cycles
 Optimization completed.
    -- Stationary point found.
 Normal termination of Gaussian 16 at Mon Jun 10 05:40:22 2019.

 ----------------------------------------------------------------------
 #P Geom=AllCheck Guess=TCheck SCRF=Check GenChk RTPSSTPSS/6-31G(d) Fre
 q
 ----------------------------------------------------------------------

 Structure from the checkpoint file:  "/scratch/users/ekwan/clay_new-glu_gluC6-bisCF3-sm-tpsstpss_d3bj-631gd-pcm_thf/Gau-35242.chk"
 -----
 title
 -----
 Charge =  0 Multiplicity = 1

                         Standard orientation:
 ---------------------------------------------------------------------
 Center     Atomic      Atomic             Coordinates (Angstroms)
 Number     Number       Type             X           Y           Z
 ---------------------------------------------------------------------
      1          6           0        3.409551    0.400388    0.570029
      2          6           0        3.323387   -0.531444   -0.647362
      3          6           0        1.855941   -0.870196   -0.982591
      4          6           0        1.030074    1.127326    0.061000
      5          6           0        2.452180    1.586112    0.407736
      6          1           0        1.750975   -1.427882   -1.915917
      7          1           0        3.726720    0.000583   -1.527078
      8          1           0        3.133262   -0.160995    1.475966
      9          1           0        0.613418    0.557025    0.904971
     10          1           0        2.816941    2.238158   -0.398636
     11          8           0        1.047331    0.263231   -1.115182
     12          8           0        1.397310   -1.733152    0.122092
     13          8           0        4.097034   -1.691070   -0.369356
     14          8           0        4.728166    0.940688    0.700961
     15          8           0        2.361793    2.313441    1.638189
     16          6           0        0.095582    2.303713   -0.232758
     17          1           0       -0.103587    2.807579    0.718861
     18          1           0       -0.851413    1.923708   -0.644992
     19          8           0        0.649675    3.302236   -1.089022
     20         16           0        0.090916   -2.699937   -0.184349
     21          8           0        0.072029   -3.641109    0.942372
     22          8           0        0.149529   -3.154387   -1.585967
     23          6           0       -1.288987   -1.567617   -0.013885
     24          6           0       -1.753239   -1.259282    1.267542
     25          6           0       -1.834786   -0.992656   -1.164753
     26          6           0       -2.802643   -0.339651    1.390747
     27          1           0       -1.310163   -1.724269    2.143569
     28          6           0       -2.882151   -0.077895   -1.015601
     29          1           0       -1.450534   -1.252288   -2.145854
     30          6           0       -3.368711    0.253425    0.256241
     31          1           0       -4.179214    0.969002    0.361844
     32          6           0        4.318983   -2.525075   -1.515354
     33          1           0        3.399791   -3.045860   -1.823853
     34          1           0        4.707228   -1.937260   -2.362096
     35          1           0        5.063564   -3.265971   -1.210705
     36          6           0        5.567505    0.205547    1.603684
     37          1           0        6.514857    0.752849    1.646973
     38          1           0        5.120981    0.169732    2.610280
     39          1           0        5.740286   -0.816590    1.244105
     40          6           0        3.064179    3.565184    1.602083
     41          1           0        2.906365    4.029774    2.581015
     42          1           0        4.137559    3.406156    1.433090
     43          1           0        2.656089    4.216735    0.814429
     44          6           0        0.633506    2.943605   -2.479209
     45          1           0        0.885103    3.855443   -3.030774
     46          1           0       -0.366808    2.594856   -2.778850
     47          1           0        1.366958    2.158424   -2.707395
     48          6           0       -3.362216   -0.026358    2.757283
     49          9           0       -2.415336   -0.146730    3.725350
     50          9           0       -4.379498   -0.871433    3.084112
     51          9           0       -3.858963    1.238272    2.816359
     52          6           0       -3.445624    0.622636   -2.226511
     53          9           0       -2.885561    1.862159   -2.382997
     54          9           0       -4.786686    0.812870   -2.118990
     55          9           0       -3.210751   -0.067972   -3.370721
 ---------------------------------------------------------------------

 SCF Done:  E(RTPSS-TPSS) =  -2298.42125884     A.U. after    1 cycles

 Isotropic polarizability for W=    0.000000      289.79 Bohr**3.
 End of Minotr F.D. properties file   721 does not exist.

                      1                      2                      3
                      A                      A                      A
 Frequencies --     15.6538                18.3258                21.1616
 Red. masses --      8.9335                 6.5910                17.7963
 Frc consts  --      0.0013                 0.0013                 0.0047
 IR Inten    --      0.1863                 0.1252                 0.0188

                      4                      5                      6
                      A                      A                      A
 Frequencies --     25.6946                32.5303                39.6773
 Red. masses --     13.0494                 5.0487                 5.8248
 Frc consts  --      0.0051                 0.0031                 0.0054
 IR Inten    --      0.0386                 0.1695                 0.8227

                      7                      8                      9
                      A                      A                      A
 Frequencies --     49.3082                53.3411                64.8316
 Red. masses --      3.6778                 4.0896                 3.9230
 Frc consts  --      0.0053                 0.0069                 0.0097
 IR Inten    --      0.8996                 1.3190                 2.7588

                     10                     11                     12
                      A                      A                      A
 Frequencies --     70.3242                73.2036                85.0178
 Red. masses --      3.4585                 3.6272                 2.6427
 Frc consts  --      0.0101                 0.0115                 0.0113
 IR Inten    --      2.9712                 3.6295                 4.3273

                     13                     14                     15
                      A                      A                      A
 Frequencies --     92.8426                95.6009               100.5259
 Red. masses --      4.4983                12.8385                 5.9659
 Frc consts  --      0.0228                 0.0691                 0.0355
 IR Inten    --      2.8347                 3.5491                 3.1979

                     16                     17                     18
                      A                      A                      A
 Frequencies --    109.3652               123.0917               145.0486
 Red. masses --      7.2306                 2.4310                 7.5175
 Frc consts  --      0.0510                 0.0217                 0.0932
 IR Inten    --      0.8101                 3.7671                 0.3707

                     19                     20                     21
                      A                      A                      A
 Frequencies --    153.1018               159.6693               163.9683
 Red. masses --      1.9916                 3.5548                 2.4115
 Frc consts  --      0.0275                 0.0534                 0.0382
 IR Inten    --      1.1011                 0.4493                 1.1999

                     22                     23                     24
                      A                      A                      A
 Frequencies --    174.2734               184.5928               190.9052
 Red. masses --      1.9138                 1.6970                 2.9963
 Frc consts  --      0.0342                 0.0341                 0.0643
 IR Inten    --      0.3476                 2.8133                11.5520

                     25                     26                     27
                      A                      A                      A
 Frequencies --    204.3768               220.1633               222.6348
 Red. masses --      1.5114                 2.7653                 3.3914
 Frc consts  --      0.0372                 0.0790                 0.0990
 IR Inten    --      0.4802                 3.5326                 3.6478

                     28                     29                     30
                      A                      A                      A
 Frequencies --    233.9192               242.8809               253.8998
 Red. masses --      3.2602                 6.6115                 3.5093
 Frc consts  --      0.1051                 0.2298                 0.1333
 IR Inten    --      3.2662                 7.7940                11.2718

                     31                     32                     33
                      A                      A                      A
 Frequencies --    267.8478               274.8073               280.6766
 Red. masses --     10.1502                 5.0775                 6.3213
 Frc consts  --      0.4290                 0.2259                 0.2934
 IR Inten    --      4.1082                13.1989                 9.6931

                     34                     35                     36
                      A                      A                      A
 Frequencies --    283.3048               301.9739               311.7881
 Red. masses --     12.3453                 5.4095                 3.9043
 Frc consts  --      0.5838                 0.2906                 0.2236
 IR Inten    --      2.7434                 0.2373                 3.8098

                     37                     38                     39
                      A                      A                      A
 Frequencies --    328.7929               336.8349               343.6327
 Red. masses --      7.3512                 6.9183                 4.5976
 Frc consts  --      0.4682                 0.4625                 0.3199
 IR Inten    --      1.7994                 6.1522                 8.1082

                     40                     41                     42
                      A                      A                      A
 Frequencies --    349.9356               394.6352               405.3424
 Red. masses --      9.3974                10.2223                 8.6038
 Frc consts  --      0.6780                 0.9380                 0.8329
 IR Inten    --     17.7979                15.6506                 8.2963

                     43                     44                     45
                      A                      A                      A
 Frequencies --    412.9997               434.0648               444.8524
 Red. masses --      2.1671                 5.9953                 9.2756
 Frc consts  --      0.2178                 0.6655                 1.0815
 IR Inten    --      7.7032                 8.5752                21.9270

                     46                     47                     48
                      A                      A                      A
 Frequencies --    453.3490               468.3783               475.1967
 Red. masses --      4.1588                 7.6226                11.8858
 Frc consts  --      0.5036                 0.9852                 1.5813
 IR Inten    --      4.7403                13.5192                 2.0347

                     49                     50                     51
                      A                      A                      A
 Frequencies --    498.2409               505.2135               517.9458
 Red. masses --      5.5294                 7.5519                 5.1713
 Frc consts  --      0.8087                 1.1357                 0.8174
 IR Inten    --     50.1711                12.3117                16.8971

                     52                     53                     54
                      A                      A                      A
 Frequencies --    542.2507               546.0166               552.2286
 Red. masses --      8.8439                 4.7065                 9.0617
 Frc consts  --      1.5321                 0.8267                 1.6282
 IR Inten    --     72.5122                30.7999               160.8857

                     55                     56                     57
                      A                      A                      A
 Frequencies --    578.6040               590.3144               618.1283
 Red. masses --      7.0351                 8.0373                 5.7244
 Frc consts  --      1.3877                 1.6502                 1.2886
 IR Inten    --     22.2119                 2.2739                 9.9982

                     58                     59                     60
                      A                      A                      A
 Frequencies --    650.2505               652.2206               652.5863
 Red. masses --      8.1237                 7.1334                12.6184
 Frc consts  --      2.0238                 1.7879                 3.1662
 IR Inten    --     13.2362                74.1875                51.0763

                     61                     62                     63
                      A                      A                      A
 Frequencies --    688.2349               688.9293               707.6078
 Red. masses --      7.7153                 3.2929                 5.1789
 Frc consts  --      2.1532                 0.9208                 1.5278
 IR Inten    --      5.8411                12.3485               155.3069

                     64                     65                     66
                      A                      A                      A
 Frequencies --    748.3465               801.3188               813.1126
 Red. masses --      8.8149                 4.3310                 7.3048
 Frc consts  --      2.9085                 1.6385                 2.8455
 IR Inten    --    461.1307                26.0310                33.1422

                     67                     68                     69
                      A                      A                      A
 Frequencies --    832.9119               847.6979               886.5731
 Red. masses --     12.0905                 4.3262                 1.4838
 Frc consts  --      4.9419                 1.8316                 0.6872
 IR Inten    --     36.7375                35.8714                70.2749

                     70                     71                     72
                      A                      A                      A
 Frequencies --    894.7022               922.2764               930.5117
 Red. masses --      3.2353                 1.3733                 1.3682
 Frc consts  --      1.5259                 0.6882                 0.6980
 IR Inten    --     32.4775                 0.8727                 9.2080

                     73                     74                     75
                      A                      A                      A
 Frequencies --    932.4177               944.9992               974.7765
 Red. masses --      4.8981                 4.4550                 4.3259
 Frc consts  --      2.5090                 2.3440                 2.4218
 IR Inten    --      9.8661                27.2488                49.4814

                     76                     77                     78
                      A                      A                      A
 Frequencies --    984.9521               998.5617              1010.7040
 Red. masses --      4.5440                 6.4051                 3.6434
 Frc consts  --      2.5973                 3.7630                 2.1928
 IR Inten    --     21.9222                 2.5455               131.9967

                     79                     80                     81
                      A                      A                      A
 Frequencies --   1051.8726              1078.1485              1085.5953
 Red. masses --      3.0451                11.8066                 4.5247
 Frc consts  --      1.9851                 8.0860                 3.1418
 IR Inten    --     17.8613                77.3938               271.7577

                     82                     83                     84
                      A                      A                      A
 Frequencies --   1090.1284              1093.2612              1095.3438
 Red. masses --      5.8730                 4.3082                 4.7367
 Frc consts  --      4.1121                 3.0338                 3.3483
 IR Inten    --    269.5002               105.1387               164.2878

                     85                     86                     87
                      A                      A                      A
 Frequencies --   1105.3898              1107.1242              1112.8117
 Red. masses --      5.1374                 4.0214                 2.9110
 Frc consts  --      3.6985                 2.9042                 2.1239
 IR Inten    --    211.4737                82.7616               198.5624

                     88                     89                     90
                      A                      A                      A
 Frequencies --   1117.8965              1120.5567              1125.1051
 Red. masses --      3.7234                 3.8720                 8.1071
 Frc consts  --      2.7415                 2.8646                 6.0464
 IR Inten    --    310.9334               259.4066               315.3805

                     91                     92                     93
                      A                      A                      A
 Frequencies --   1127.3710              1142.1251              1151.7175
 Red. masses --      3.9504                 4.5569                 2.7424
 Frc consts  --      2.9582                 3.5023                 2.1433
 IR Inten    --     58.4698               153.3628                68.3547

                     94                     95                     96
                      A                      A                      A
 Frequencies --   1161.3274              1166.3824              1168.1600
 Red. masses --      5.6478                 1.2794                 1.2537
 Frc consts  --      4.4878                 1.0255                 1.0080
 IR Inten    --    157.2920                 2.2210                 0.2725

                     97                     98                     99
                      A                      A                      A
 Frequencies --   1169.0925              1170.9401              1174.9343
 Red. masses --      4.1173                 1.2780                 1.2721
 Frc consts  --      3.3156                 1.0324                 1.0346
 IR Inten    --    194.3457                 6.5498                 1.2881

                    100                    101                    102
                      A                      A                      A
 Frequencies --   1192.6102              1202.6154              1208.2925
 Red. masses --      1.3111                 1.3743                 1.4715
 Frc consts  --      1.0987                 1.1711                 1.2658
 IR Inten    --     22.0398                18.8652                 5.2163

                    103                    104                    105
                      A                      A                      A
 Frequencies --   1217.5855              1243.8744              1253.8618
 Red. masses --      1.5307                 1.7347                 3.2638
 Frc consts  --      1.3370                 1.5813                 3.0233
 IR Inten    --     12.8836                 6.8127               761.2123

                    106                    107                    108
                      A                      A                      A
 Frequencies --   1280.1988              1294.8650              1305.9232
 Red. masses --      1.4465                 1.4301                 3.4840
 Frc consts  --      1.3967                 1.4128                 3.5007
 IR Inten    --      1.4315                 8.1991               182.6027

                    109                    110                    111
                      A                      A                      A
 Frequencies --   1309.8091              1320.9120              1338.9668
 Red. masses --      1.6500                 1.1679                 4.6050
 Frc consts  --      1.6679                 1.2006                 4.8642
 IR Inten    --     38.5995                 8.5467               186.7949

                    112                    113                    114
                      A                      A                      A
 Frequencies --   1342.8527              1347.6608              1358.0822
 Red. masses --      1.3305                 1.2025                 1.2685
 Frc consts  --      1.4136                 1.2868                 1.3785
 IR Inten    --     19.4385                12.0188                 2.1872

                    115                    116                    117
                      A                      A                      A
 Frequencies --   1368.5369              1377.2327              1388.0769
 Red. masses --      1.4341                 6.9354                 1.3208
 Frc consts  --      1.5825                 7.7506                 1.4994
 IR Inten    --     14.8111                 0.9938                 3.1125

                    118                    119                    120
                      A                      A                      A
 Frequencies --   1396.9903              1409.9187              1416.2334
 Red. masses --      1.3392                 1.2757                 1.3214
 Frc consts  --      1.5398                 1.4941                 1.5615
 IR Inten    --     28.7419                12.1282                 9.6172

                    121                    122                    123
                      A                      A                      A
 Frequencies --   1458.9780              1473.0656              1477.2746
 Red. masses --      3.4996                 3.7316                 1.1390
 Frc consts  --      4.3890                 4.7708                 1.4645
 IR Inten    --      5.2356                 1.4087                 3.7952

                    124                    125                    126
                      A                      A                      A
 Frequencies --   1479.4842              1480.8789              1487.2015
 Red. masses --      1.1227                 1.1541                 1.1391
 Frc consts  --      1.4479                 1.4912                 1.4844
 IR Inten    --      1.2130                 4.5764                 4.1927

                    127                    128                    129
                      A                      A                      A
 Frequencies --   1499.6421              1503.5290              1506.8148
 Red. masses --      1.1256                 1.0545                 1.0554
 Frc consts  --      1.4915                 1.4045                 1.4119
 IR Inten    --      5.8156                 1.1308                 0.3886

                    130                    131                    132
                      A                      A                      A
 Frequencies --   1508.2245              1513.0841              1529.9853
 Red. masses --      1.0591                 1.0666                 1.0492
 Frc consts  --      1.4195                 1.4387                 1.4471
 IR Inten    --      3.0591                 6.1332                 9.4945

                    133                    134                    135
                      A                      A                      A
 Frequencies --   1532.9346              1533.4883              1534.1986
 Red. masses --      1.0519                 1.0514                 1.0521
 Frc consts  --      1.4563                 1.4567                 1.4590
 IR Inten    --      5.6429                 8.9485                 6.7159

                    136                    137                    138
                      A                      A                      A
 Frequencies --   1613.5422              1636.0943              2971.2049
 Red. masses --      6.1452                 5.7852                 1.0818
 Frc consts  --      9.4264                 9.1240                 5.6266
 IR Inten    --     10.1729                14.2122                38.6250

                    139                    140                    141
                      A                      A                      A
 Frequencies --   2987.2381              2991.1412              2997.3807
 Red. masses --      1.0347                 1.0395                 1.0335
 Frc consts  --      5.4401                 5.4796                 5.4708
 IR Inten    --     90.9225                74.8143                78.3121

                    142                    143                    144
                      A                      A                      A
 Frequencies --   3000.3716              3009.8773              3013.3314
 Red. masses --      1.0323                 1.0831                 1.0744
 Frc consts  --      5.4755                 5.7809                 5.7480
 IR Inten    --     57.9234                23.5910                10.5326

                    145                    146                    147
                      A                      A                      A
 Frequencies --   3022.9174              3034.2846              3043.9181
 Red. masses --      1.0719                 1.0845                 1.1058
 Frc consts  --      5.7712                 5.8831                 6.0367
 IR Inten    --     52.0132                78.3200                72.2870

                    148                    149                    150
                      A                      A                      A
 Frequencies --   3064.3507              3067.7809              3070.2365
 Red. masses --      1.1033                 1.1028                 1.0941
 Frc consts  --      6.1041                 6.1152                 6.0767
 IR Inten    --     52.9906                61.1641                57.3437

                    151                    152                    153
                      A                      A                      A
 Frequencies --   3103.8258              3114.6215              3116.4924
 Red. masses --      1.0988                 1.1024                 1.1027
 Frc consts  --      6.2370                 6.3010                 6.3101
 IR Inten    --     23.1340                56.5192                48.9367

                    154                    155                    156
                      A                      A                      A
 Frequencies --   3118.1154              3118.3978              3128.0336
 Red. masses --      1.0876                 1.1040                 1.0986
 Frc consts  --      6.2303                 6.3255                 6.3331
 IR Inten    --     14.8474                44.7425                36.0987

                    157                    158                    159
                      A                      A                      A
 Frequencies --   3207.3573              3207.5520              3219.7557
 Red. masses --      1.0918                 1.0912                 1.0915
 Frc consts  --      6.6173                 6.6144                 6.6666
 IR Inten    --      0.3888                 2.6028                 3.6879

 - Thermochemistry -
 -------------------
 Temperature   298.150 Kelvin.  Pressure   1.00000 Atm.
 Atom     1 has atomic number  6 and mass  12.00000

 Molecular mass:   512.09396 amu.
 Principal axes and moments of inertia in atomic units:
                           1         2         3
     Eigenvalues --  ******************************
           X            0.99995   0.00673   0.00720
           Y           -0.00773   0.98865   0.15002
           Z           -0.00611  -0.15007   0.98866
 This molecule is an asymmetric top.
 Rotational symmetry number  1.
 Warning -- assumption of classical behavior for rotation
           may cause significant error
 Rotational temperatures (Kelvin)      0.00718     0.00403     0.00396
 Rotational constants (GHZ):           0.14964     0.08401     0.08248
 Zero-point vibrational energy    1060297.9 (Joules/Mol)
                                  253.41728 (Kcal/Mol)
 Warning -- explicit consideration of  57 degrees of freedom as
           vibrations may cause significant error
 Vibrational temperatures:     22.52    26.37    30.45    36.97    46.80
          (Kelvin)             57.09    70.94    76.75    93.28   101.18
                              105.32   122.32   133.58   137.55   144.63
                              157.35   177.10   208.69   220.28   229.73
                              235.91   250.74   265.59   274.67   294.05
                              316.77   320.32   336.56   349.45   365.31
                              385.37   395.39   403.83   407.61   434.47
                              448.59   473.06   484.63   494.41   503.48
                              567.79   583.20   594.21   624.52   640.04
                              652.27   673.89   683.70   716.86   726.89
                              745.21   780.18   785.60   794.53   832.48
                              849.33   889.35   935.57   938.40   938.93
                              990.22   991.22  1018.09  1076.70  1152.92
                             1169.89  1198.37  1219.65  1275.58  1287.28
                             1326.95  1338.80  1341.54  1359.64  1402.49
                             1417.13  1436.71  1454.18  1513.41  1551.22
                             1561.93  1568.45  1572.96  1575.96  1590.41
                             1592.90  1601.09  1608.40  1612.23  1618.78
                             1622.04  1643.26  1657.06  1670.89  1678.16
                             1680.72  1682.06  1684.72  1690.47  1715.90
                             1730.30  1738.46  1751.83  1789.66  1804.03
                             1841.92  1863.02  1878.93  1884.52  1900.50
                             1926.47  1932.07  1938.98  1953.98  1969.02
                             1981.53  1997.13  2009.96  2028.56  2037.64
                             2099.14  2119.41  2125.47  2128.65  2130.65
                             2139.75  2157.65  2163.24  2167.97  2170.00
                             2176.99  2201.31  2205.55  2206.35  2207.37
                             2321.53  2353.97  4274.90  4297.97  4303.59
                             4312.56  4316.87  4330.54  4335.51  4349.30
                             4365.66  4379.52  4408.92  4413.85  4417.39
                             4465.71  4481.25  4483.94  4486.27  4486.68
                             4500.54  4614.67  4614.95  4632.51

 Zero-point correction=                           0.403846 (Hartree/Particle)
 Thermal correction to Energy=                    0.438267
 Thermal correction to Enthalpy=                  0.439211
 Thermal correction to Gibbs Free Energy=         0.333646
 Sum of electronic and zero-point Energies=          -2298.017413
 Sum of electronic and thermal Energies=             -2297.982992
 Sum of electronic and thermal Enthalpies=           -2297.982047
 Sum of electronic and thermal Free Energies=        -2298.087612

                     E (Thermal)             CV                S
                      KCal/Mol        Cal/Mol-Kelvin    Cal/Mol-Kelvin
 Total                  275.017            123.956            222.180
 Electronic               0.000              0.000              0.000
 Translational            0.889              2.981             44.587
 Rotational               0.889              2.981             36.981
 Vibrational            273.239            117.994            140.612
 Vibration     1          0.593              1.986              7.121
 Vibration     2          0.593              1.986              6.808
 Vibration     3          0.593              1.985              6.522
 Vibration     4          0.593              1.985              6.137
 Vibration     5          0.594              1.983              5.669
 Vibration     6          0.594              1.981              5.275
 Vibration     7          0.595              1.978              4.845
 Vibration     8          0.596              1.976              4.690
 Vibration     9          0.597              1.971              4.304
 Vibration    10          0.598              1.968              4.144
 Vibration    11          0.599              1.967              4.065
 Vibration    12          0.601              1.960              3.772
 Vibration    13          0.602              1.954              3.599
 Vibration    14          0.603              1.952              3.542
 Vibration    15          0.604              1.949              3.444
 Vibration    16          0.606              1.942              3.280
 Vibration    17          0.610              1.930              3.051
 Vibration    18          0.616              1.908              2.736
 Vibration    19          0.619              1.899              2.633
 Vibration    20          0.622              1.892              2.554
 Vibration    21          0.623              1.887              2.504
 Vibration    22          0.627              1.874              2.389
 Vibration    23          0.631              1.861              2.281
 Vibration    24          0.634              1.852              2.219
 Vibration    25          0.640              1.834              2.093
 Vibration    26          0.647              1.810              1.958
 Vibration    27          0.648              1.807              1.938
 Vibration    28          0.654              1.789              1.849
 Vibration    29          0.659              1.775              1.782
 Vibration    30          0.665              1.756              1.703
 Vibration    31          0.673              1.732              1.610
 Vibration    32          0.677              1.720              1.566
 Vibration    33          0.680              1.709              1.530
 Vibration    34          0.682              1.705              1.514
 Vibration    35          0.694              1.670              1.406
 Vibration    36          0.700              1.651              1.353
 Vibration    37          0.712              1.618              1.266
 Vibration    38          0.718              1.602              1.227
 Vibration    39          0.722              1.588              1.195
 Vibration    40          0.727              1.575              1.166
 Vibration    41          0.762              1.482              0.983
 Vibration    42          0.770              1.459              0.943
 Vibration    43          0.777              1.442              0.916
 Vibration    44          0.795              1.396              0.845
 Vibration    45          0.804              1.372              0.811
 Vibration    46          0.812              1.353              0.786
 Vibration    47          0.826              1.320              0.742
 Vibration    48          0.832              1.305              0.723
 Vibration    49          0.854              1.254              0.663
 Vibration    50          0.860              1.238              0.645
 Vibration    51          0.873              1.210              0.615
 Vibration    52          0.897              1.157              0.560
 Vibration    53          0.901              1.148              0.552
 Vibration    54          0.908              1.135              0.540
 Vibration    55          0.935              1.078              0.488
 Vibration    56          0.948              1.052              0.467
 Vibration    57          0.978              0.994              0.420

 Optimization completed.
    -- Stationary point found.
 Normal termination of Gaussian 16 at Mon Jun 10 06:09:38 2019.
