 Gaussian 16, Revision A.03,
 Gaussian 16:  AS64L-G16RevA.03 25-Dec-2016

 ----------------------------------------------------------------------
 #p opt freq=noraman pop=none 6-31g* scrf=(pcm,solvent=tetrahydrofuran)
  b3p86
 ----------------------------------------------------------------------

 -----
 title
 -----
 Symbolic Z-matrix:
 Charge =  0 Multiplicity = 1

 SCF Done:  E(RB3P86) =  -2302.81769297     A.U. after   13 cycles
 Optimization completed.
    -- Stationary point found.
 Normal termination of Gaussian 16 at Wed Jun  5 15:12:00 2019.

 --------------------------------------------------------------------
 #P Geom=AllCheck Guess=TCheck SCRF=Check GenChk RB3P86/6-31G(d) Freq
 --------------------------------------------------------------------

 Structure from the checkpoint file:  "/scratch/users/ekwan/clay_new-glu_gluC6-bisCF3-sm-b3p86-631gd-pcm_thf/Gau-50101.chk"
 -----
 title
 -----
 Charge =  0 Multiplicity = 1

                         Standard orientation:
 ---------------------------------------------------------------------
 Center     Atomic      Atomic             Coordinates (Angstroms)
 Number     Number       Type             X           Y           Z
 ---------------------------------------------------------------------
      1          6           0        3.503039   -0.215245    0.733102
      2          6           0        3.349507   -0.493249   -0.760465
      3          6           0        1.880723   -0.388035   -1.193688
      4          6           0        1.343369    1.087777    0.599176
      5          6           0        2.786145    1.080105    1.103395
      6          1           0        1.770694   -0.451835   -2.277022
      7          1           0        3.883512    0.300545   -1.308437
      8          1           0        3.051510   -1.040082    1.303015
      9          1           0        0.776171    0.316283    1.139191
     10          1           0        3.317234    1.923986    0.643181
     11          8           0        1.290795    0.802572   -0.809707
     12          8           0        1.200772   -1.529039   -0.604000
     13          8           0        3.905597   -1.747743   -1.051325
     14          8           0        4.864388   -0.068109    1.078540
     15          8           0        2.739260    1.228485    2.507637
     16          6           0        0.651308    2.420649    0.841502
     17          1           0        0.524542    2.523719    1.922810
     18          1           0       -0.343989    2.400166    0.375041
     19          8           0        1.377801    3.551136    0.417412
     20         16           0       -0.096966   -2.147427   -1.361728
     21          8           0       -0.198573   -3.506842   -0.862964
     22          8           0        0.014089   -1.864691   -2.787184
     23          6           0       -1.457546   -1.206084   -0.707459
     24          6           0       -2.118727   -1.677180    0.420658
     25          6           0       -1.830901   -0.026507   -1.341572
     26          6           0       -3.182845   -0.935777    0.926160
     27          1           0       -1.812600   -2.607140    0.886350
     28          6           0       -2.891157    0.703216   -0.814058
     29          1           0       -1.310718    0.310666   -2.230250
     30          6           0       -3.569397    0.254040    0.316225
     31          1           0       -4.398016    0.826837    0.716913
     32          6           0        4.202502   -1.952731   -2.420250
     33          1           0        3.296054   -2.038687   -3.033851
     34          1           0        4.826689   -1.140512   -2.817959
     35          1           0        4.754456   -2.892274   -2.483395
     36          6           0        5.469529   -1.239346    1.595626
     37          1           0        6.499587   -0.973884    1.845414
     38          1           0        4.959245   -1.579106    2.507889
     39          1           0        5.469699   -2.051232    0.861328
     40          6           0        3.645913    2.189757    3.017799
     41          1           0        3.506051    2.208226    4.101357
     42          1           0        4.682508    1.919036    2.789391
     43          1           0        3.433333    3.188140    2.612261
     44          6           0        1.228545    3.866594   -0.954436
     45          1           0        1.675334    4.853009   -1.101112
     46          1           0        0.166395    3.910025   -1.234395
     47          1           0        1.731351    3.141225   -1.603532
     48          6           0       -3.957448   -1.457243    2.105536
     49          9           0       -3.180129   -2.185731    2.922445
     50          9           0       -4.972360   -2.247615    1.712074
     51          9           0       -4.489615   -0.457288    2.826876
     52          6           0       -3.268559    2.016690   -1.440255
     53          9           0       -2.568602    3.034470   -0.894600
     54          9           0       -4.568420    2.296774   -1.264086
     55          9           0       -3.016942    2.028387   -2.757794
 ---------------------------------------------------------------------

 SCF Done:  E(RB3P86) =  -2302.81769297     A.U. after    1 cycles

 Isotropic polarizability for W=    0.000000      275.06 Bohr**3.
 End of Minotr F.D. properties file   721 does not exist.

                      1                      2                      3
                      A                      A                      A
 Frequencies --     12.7713                15.8363                20.9589
 Red. masses --      9.1090                 6.3261                13.6673
 Frc consts  --      0.0009                 0.0009                 0.0035
 IR Inten    --      0.1232                 0.2545                 0.1163

                      4                      5                      6
                      A                      A                      A
 Frequencies --     23.7587                24.1619                32.6068
 Red. masses --      3.9468                 7.0931                 3.8855
 Frc consts  --      0.0013                 0.0024                 0.0024
 IR Inten    --      2.2786                 0.4959                 1.8326

                      7                      8                      9
                      A                      A                      A
 Frequencies --     39.4019                46.5945                50.9221
 Red. masses --      6.6098                 3.3209                 5.0418
 Frc consts  --      0.0060                 0.0042                 0.0077
 IR Inten    --      0.4950                 1.0785                 1.4455

                     10                     11                     12
                      A                      A                      A
 Frequencies --     60.2513                67.8446                79.6161
 Red. masses --      3.2590                 3.9234                 3.4377
 Frc consts  --      0.0070                 0.0106                 0.0128
 IR Inten    --      7.0344                 0.6979                 1.1383

                     13                     14                     15
                      A                      A                      A
 Frequencies --     81.8161                99.3603               100.4215
 Red. masses --      2.8082                12.1654                 7.4909
 Frc consts  --      0.0111                 0.0708                 0.0445
 IR Inten    --      4.5983                 2.7252                 3.7562

                     16                     17                     18
                      A                      A                      A
 Frequencies --    110.2892               116.1381               149.6511
 Red. masses --      2.9066                 4.9597                 7.5610
 Frc consts  --      0.0208                 0.0394                 0.0998
 IR Inten    --      2.2449                 2.3957                 0.1620

                     19                     20                     21
                      A                      A                      A
 Frequencies --    155.0791               160.3840               167.2825
 Red. masses --      1.4243                 1.9018                 3.0196
 Frc consts  --      0.0202                 0.0288                 0.0498
 IR Inten    --      0.1544                 0.5440                 1.0352

                     22                     23                     24
                      A                      A                      A
 Frequencies --    178.7729               184.5205               192.3788
 Red. masses --      1.6774                 3.1280                 1.9486
 Frc consts  --      0.0316                 0.0627                 0.0425
 IR Inten    --      2.1304                 4.7991                 2.0564

                     25                     26                     27
                      A                      A                      A
 Frequencies --    197.3674               223.3674               234.9893
 Red. masses --      1.8383                 2.9218                11.9832
 Frc consts  --      0.0422                 0.0859                 0.3899
 IR Inten    --      0.3210                12.0185                 0.1338

                     28                     29                     30
                      A                      A                      A
 Frequencies --    243.5710               255.4021               257.0934
 Red. masses --      3.7099                 3.5371                 6.9901
 Frc consts  --      0.1297                 0.1359                 0.2722
 IR Inten    --      6.0985                10.5419                10.0502

                     31                     32                     33
                      A                      A                      A
 Frequencies --    280.9512               285.7050               290.5741
 Red. masses --     10.6327                 5.0574                 9.4283
 Frc consts  --      0.4945                 0.2432                 0.4690
 IR Inten    --      3.1227                10.4078                 5.7296

                     34                     35                     36
                      A                      A                      A
 Frequencies --    292.8553               312.1374               322.4938
 Red. masses --      8.4792                 5.4470                 4.0315
 Frc consts  --      0.4285                 0.3127                 0.2470
 IR Inten    --      8.8276                 0.1770                 4.8905

                     37                     38                     39
                      A                      A                      A
 Frequencies --    343.5834               351.5000               357.8745
 Red. masses --      7.1672                 6.7031                 4.7756
 Frc consts  --      0.4985                 0.4880                 0.3604
 IR Inten    --      0.7812                 3.5877                 6.6873

                     40                     41                     42
                      A                      A                      A
 Frequencies --    366.0839               411.6547               419.6643
 Red. masses --      9.4445                10.0994                 8.7901
 Frc consts  --      0.7457                 1.0083                 0.9121
 IR Inten    --     14.5249                15.1245                 6.7627

                     43                     44                     45
                      A                      A                      A
 Frequencies --    439.3045               452.3392               462.3373
 Red. masses --      2.1178                 5.3629                 8.6544
 Frc consts  --      0.2408                 0.6465                 1.0899
 IR Inten    --      6.3347                11.5306                15.2614

                     46                     47                     48
                      A                      A                      A
 Frequencies --    471.4334               493.7307               499.0903
 Red. masses --      4.1878                 7.5925                11.9049
 Frc consts  --      0.5484                 1.0905                 1.7472
 IR Inten    --      8.7329                18.2895                 0.8418

                     49                     50                     51
                      A                      A                      A
 Frequencies --    522.7854               529.3673               540.8273
 Red. masses --      4.7252                10.1901                 4.8616
 Frc consts  --      0.7609                 1.6824                 0.8378
 IR Inten    --     39.5069                29.6591                10.3327

                     52                     53                     54
                      A                      A                      A
 Frequencies --    567.9927               569.1274               580.0822
 Red. masses --      3.9144                12.9098                11.4874
 Frc consts  --      0.7440                 2.4637                 2.2775
 IR Inten    --     38.7155                24.3735               261.1598

                     55                     56                     57
                      A                      A                      A
 Frequencies --    603.9196               613.1736               633.3057
 Red. masses --      6.9163                 8.1045                 5.5593
 Frc consts  --      1.4862                 1.7953                 1.3137
 IR Inten    --     37.8315                 1.8866                 9.5976

                     58                     59                     60
                      A                      A                      A
 Frequencies --    675.4078               680.5081               685.4333
 Red. masses --      7.5854                12.5566                 6.1100
 Frc consts  --      2.0387                 3.4260                 1.6913
 IR Inten    --      1.1090                59.9866                40.4830

                     61                     62                     63
                      A                      A                      A
 Frequencies --    707.3744               719.7341               735.3672
 Red. masses --      2.5756                 9.4986                 5.5025
 Frc consts  --      0.7593                 2.8990                 1.7531
 IR Inten    --     27.8722                 5.1747                69.5019

                     64                     65                     66
                      A                      A                      A
 Frequencies --    818.0230               844.3827               849.8841
 Red. masses --      7.8755                 3.5518                12.1468
 Frc consts  --      3.1050                 1.4920                 5.1693
 IR Inten    --    398.0503                84.6112               209.3127

                     67                     68                     69
                      A                      A                      A
 Frequencies --    865.5204               888.2822               910.6754
 Red. masses --     11.9680                 3.7895                 1.5840
 Frc consts  --      5.2823                 1.7617                 0.7740
 IR Inten    --     24.2009                54.4185                75.3765

                     70                     71                     72
                      A                      A                      A
 Frequencies --    936.6767               942.5464               956.7846
 Red. masses --      2.7315                 1.4174                 1.3728
 Frc consts  --      1.4120                 0.7419                 0.7404
 IR Inten    --     22.8317                 5.7616                 8.4299

                     73                     74                     75
                      A                      A                      A
 Frequencies --    981.2430               989.6839              1014.6789
 Red. masses --      4.7616                 4.1352                 6.2601
 Frc consts  --      2.7012                 2.3864                 3.7974
 IR Inten    --     14.0041                44.5705                 5.9825

                     76                     77                     78
                      A                      A                      A
 Frequencies --   1021.5863              1036.5402              1052.1207
 Red. masses --      4.0047                 4.0670                 3.6128
 Frc consts  --      2.4625                 2.5745                 2.3562
 IR Inten    --     42.8407                11.6825               133.0534

                     79                     80                     81
                      A                      A                      A
 Frequencies --   1093.4049              1123.3834              1126.7130
 Red. masses --      2.9736                 9.4417                 2.8400
 Frc consts  --      2.0946                 7.0203                 2.1242
 IR Inten    --     16.3697                58.5203               102.4110

                     82                     83                     84
                      A                      A                      A
 Frequencies --   1133.6299              1137.6352              1138.5684
 Red. masses --      2.1687                 2.3528                 1.8932
 Frc consts  --      1.6421                 1.7941                 1.4460
 IR Inten    --     80.4703                 8.5121                20.0735

                     85                     86                     87
                      A                      A                      A
 Frequencies --   1147.2369              1166.7867              1168.9861
 Red. masses --      2.7933                 3.8986                 4.9165
 Frc consts  --      2.1661                 3.1271                 3.9584
 IR Inten    --    217.4124                27.3543               448.2986

                     88                     89                     90
                      A                      A                      A
 Frequencies --   1172.4788              1180.8827              1182.2192
 Red. masses --      3.4913                 1.5585                 4.8852
 Frc consts  --      2.8278                 1.2805                 4.0228
 IR Inten    --    320.5032                90.4191               309.7773

                     91                     92                     93
                      A                      A                      A
 Frequencies --   1183.2158              1184.9355              1189.3722
 Red. masses --      1.3090                 1.5278                 1.3553
 Frc consts  --      1.0797                 1.2639                 1.1296
 IR Inten    --     16.6440                13.5105                 8.0762

                     94                     95                     96
                      A                      A                      A
 Frequencies --   1192.1074              1197.0439              1199.1138
 Red. masses --      1.8615                12.1029                 3.0335
 Frc consts  --      1.5586                10.2178                 2.5699
 IR Inten    --     41.3953               331.1759               132.3789

                     97                     98                     99
                      A                      A                      A
 Frequencies --   1208.1943              1214.9249              1225.0543
 Red. masses --      4.3833                 1.5366                 5.1420
 Frc consts  --      3.7699                 1.3363                 4.5467
 IR Inten    --    170.4388                96.9573               140.4741

                    100                    101                    102
                      A                      A                      A
 Frequencies --   1225.2759              1230.1982              1236.1831
 Red. masses --      1.7955                 7.1679                 1.9348
 Frc consts  --      1.5882                 6.3914                 1.7420
 IR Inten    --     67.4093               277.7992                14.4933

                    103                    104                    105
                      A                      A                      A
 Frequencies --   1239.7423              1267.1354              1295.2938
 Red. masses --      1.8079                 1.8207                 2.8828
 Frc consts  --      1.6371                 1.7224                 2.8497
 IR Inten    --     52.2442                 9.3384               703.5834

                    106                    107                    108
                      A                      A                      A
 Frequencies --   1304.3268              1307.7528              1340.4749
 Red. masses --      1.4821                 1.4159                 1.3955
 Frc consts  --      1.4856                 1.4267                 1.4774
 IR Inten    --      4.2018               103.8737                 1.4358

                    109                    110                    111
                      A                      A                      A
 Frequencies --   1345.6901              1361.2983              1369.7970
 Red. masses --      1.2660                 5.3859                 1.2425
 Frc consts  --      1.3508                 5.8806                 1.3736
 IR Inten    --     14.5472               242.8674                16.5510

                    112                    113                    114
                      A                      A                      A
 Frequencies --   1371.1545              1386.8949              1390.5986
 Red. masses --      1.3372                 6.3654                 1.3336
 Frc consts  --      1.4812                 7.2138                 1.5194
 IR Inten    --     50.7845               185.0499                 0.6869

                    115                    116                    117
                      A                      A                      A
 Frequencies --   1399.6572              1402.9253              1414.3966
 Red. masses --      2.9985                 2.0522                 1.3235
 Frc consts  --      3.4610                 2.3798                 1.5600
 IR Inten    --      3.7644                16.3560                 7.8253

                    118                    119                    120
                      A                      A                      A
 Frequencies --   1425.6297              1431.4938              1442.5920
 Red. masses --      1.4539                 1.3212                 1.3726
 Frc consts  --      1.7410                 1.5951                 1.6830
 IR Inten    --     33.1665                10.5293                12.9582

                    121                    122                    123
                      A                      A                      A
 Frequencies --   1483.3366              1489.8070              1491.9659
 Red. masses --      1.0906                 1.1739                 1.1665
 Frc consts  --      1.4138                 1.5351                 1.5299
 IR Inten    --      3.5896                 0.6653                 1.3954

                    124                    125                    126
                      A                      A                      A
 Frequencies --   1495.7754              1496.1496              1503.1472
 Red. masses --      1.1237                 3.9777                 1.0520
 Frc consts  --      1.4813                 5.2460                 1.4004
 IR Inten    --      7.0909                 2.7822                 3.4204

                    127                    128                    129
                      A                      A                      A
 Frequencies --   1503.5470              1505.2418              1506.1531
 Red. masses --      1.0699                 1.0558                 4.2982
 Frc consts  --      1.4250                 1.4094                 5.7448
 IR Inten    --     15.3334                 1.9603                 0.1256

                    130                    131                    132
                      A                      A                      A
 Frequencies --   1509.3742              1514.8492              1524.6284
 Red. masses --      1.1242                 1.0841                 1.0547
 Frc consts  --      1.5090                 1.4658                 1.4445
 IR Inten    --      1.2707                 4.7377                13.8169

                    133                    134                    135
                      A                      A                      A
 Frequencies --   1531.0656              1531.4158              1533.3976
 Red. masses --      1.0495                 1.0482                 1.0574
 Frc consts  --      1.4495                 1.4484                 1.4648
 IR Inten    --      6.3493                11.2684                10.5930

                    136                    137                    138
                      A                      A                      A
 Frequencies --   1665.2482              1686.3086              3014.6276
 Red. masses --      6.6316                 6.3566                 1.0819
 Frc consts  --     10.8349                10.6500                 5.7929
 IR Inten    --     18.6035                22.2976                28.1901

                    139                    140                    141
                      A                      A                      A
 Frequencies --   3029.0746              3033.1805              3033.4066
 Red. masses --      1.0357                 1.0387                 1.0381
 Frc consts  --      5.5990                 5.6306                 5.6279
 IR Inten    --     74.3225               121.6014                 8.4641

                    142                    143                    144
                      A                      A                      A
 Frequencies --   3037.5171              3047.3076              3049.2720
 Red. masses --      1.0358                 1.0727                 1.0827
 Frc consts  --      5.6308                 5.8687                 5.9311
 IR Inten    --     68.9935                12.9144                20.3987

                    145                    146                    147
                      A                      A                      A
 Frequencies --   3056.5932              3071.3093              3091.3716
 Red. masses --      1.0762                 1.0847                 1.1061
 Frc consts  --      5.9243                 6.0287                 6.2279
 IR Inten    --     38.2632                65.1192                61.6576

                    148                    149                    150
                      A                      A                      A
 Frequencies --   3108.6952              3114.2912              3116.0899
 Red. masses --      1.0991                 1.1018                 1.0960
 Frc consts  --      6.2581                 6.2959                 6.2703
 IR Inten    --     47.4649                52.6876                45.7913

                    151                    152                    153
                      A                      A                      A
 Frequencies --   3138.1913              3156.3444              3159.4335
 Red. masses --      1.0986                 1.1035                 1.0946
 Frc consts  --      6.3747                 6.4771                 6.4375
 IR Inten    --     18.9788                43.9081                41.5077

                    154                    155                    156
                      A                      A                      A
 Frequencies --   3159.4953              3161.0310              3168.6985
 Red. masses --      1.0971                 1.1047                 1.0997
 Frc consts  --      6.4523                 6.5039                 6.5055
 IR Inten    --      7.6673                34.5066                27.6096

                    157                    158                    159
                      A                      A                      A
 Frequencies --   3254.0115              3255.7952              3261.5655
 Red. masses --      1.0922                 1.0922                 1.0921
 Frc consts  --      6.8141                 6.8210                 6.8451
 IR Inten    --      1.5645                 7.6307                 5.7467

 - Thermochemistry -
 -------------------
 Temperature   298.150 Kelvin.  Pressure   1.00000 Atm.
 Atom     1 has atomic number  6 and mass  12.00000

 Molecular mass:   512.09396 amu.
 Principal axes and moments of inertia in atomic units:
                           1         2         3
     Eigenvalues --  ******************************
           X            0.99994  -0.00060   0.01061
           Y           -0.00028   0.99656   0.08291
           Z           -0.01062  -0.08291   0.99650
 This molecule is an asymmetric top.
 Rotational symmetry number  1.
 Warning -- assumption of classical behavior for rotation
           may cause significant error
 Rotational temperatures (Kelvin)      0.00727     0.00389     0.00359
 Rotational constants (GHZ):           0.15144     0.08108     0.07476
 Zero-point vibrational energy    1083530.0 (Joules/Mol)
                                  258.96988 (Kcal/Mol)
 Warning -- explicit consideration of  56 degrees of freedom as
           vibrations may cause significant error
 Vibrational temperatures:     18.38    22.78    30.16    34.18    34.76
          (Kelvin)             46.91    56.69    67.04    73.27    86.69
                               97.61   114.55   117.72   142.96   144.48
                              158.68   167.10   215.31   223.12   230.76
                              240.68   257.21   265.48   276.79   283.97
                              321.38   338.10   350.44   367.47   369.90
                              404.23   411.07   418.07   421.35   449.10
                              464.00   494.34   505.73   514.90   526.71
                              592.28   603.80   632.06   650.82   665.20
                              678.29   710.37   718.08   752.17   761.64
                              778.13   817.21   818.85   834.61   868.91
                              882.22   911.19   971.76   979.10   986.19
                             1017.75  1035.54  1058.03  1176.95  1214.88
                             1222.79  1245.29  1278.04  1310.26  1347.67
                             1356.11  1376.60  1411.79  1423.93  1459.90
                             1469.83  1491.35  1513.77  1573.17  1616.30
                             1621.09  1631.04  1636.80  1638.15  1650.62
                             1678.75  1681.91  1686.94  1699.03  1700.95
                             1702.38  1704.86  1711.24  1715.18  1722.28
                             1725.26  1738.32  1748.01  1762.58  1762.90
                             1769.98  1778.59  1783.71  1823.13  1863.64
                             1876.64  1881.56  1928.64  1936.15  1958.60
                             1970.83  1972.79  1995.43  2000.76  2013.79
                             2018.50  2035.00  2051.16  2059.60  2075.57
                             2134.19  2143.50  2146.61  2152.09  2152.63
                             2162.69  2163.27  2165.71  2167.02  2171.65
                             2179.53  2193.60  2202.86  2203.37  2206.22
                             2395.92  2426.22  4337.38  4358.16  4364.07
                             4364.40  4370.31  4384.40  4387.22  4397.76
                             4418.93  4447.79  4472.72  4480.77  4483.36
                             4515.16  4541.28  4545.72  4545.81  4548.02
                             4559.05  4681.80  4684.36  4692.67

 Zero-point correction=                           0.412695 (Hartree/Particle)
 Thermal correction to Energy=                    0.446508
 Thermal correction to Enthalpy=                  0.447452
 Thermal correction to Gibbs Free Energy=         0.341313
 Sum of electronic and zero-point Energies=          -2302.404998
 Sum of electronic and thermal Energies=             -2302.371185
 Sum of electronic and thermal Enthalpies=           -2302.370241
 Sum of electronic and thermal Free Energies=        -2302.476380

                     E (Thermal)             CV                S
                      KCal/Mol        Cal/Mol-Kelvin    Cal/Mol-Kelvin
 Total                  280.188            120.721            223.389
 Electronic               0.000              0.000              0.000
 Translational            0.889              2.981             44.587
 Rotational               0.889              2.981             37.102
 Vibrational            278.411            114.759            141.700
 Vibration     1          0.593              1.987              7.525
 Vibration     2          0.593              1.986              7.098
 Vibration     3          0.593              1.986              6.541
 Vibration     4          0.593              1.985              6.292
 Vibration     5          0.593              1.985              6.259
 Vibration     6          0.594              1.983              5.664
 Vibration     7          0.594              1.981              5.289
 Vibration     8          0.595              1.979              4.957
 Vibration     9          0.595              1.977              4.781
 Vibration    10          0.597              1.973              4.449
 Vibration    11          0.598              1.970              4.215
 Vibration    12          0.600              1.963              3.900
 Vibration    13          0.600              1.962              3.847
 Vibration    14          0.604              1.950              3.467
 Vibration    15          0.604              1.949              3.446
 Vibration    16          0.606              1.941              3.264
 Vibration    17          0.608              1.936              3.164
 Vibration    18          0.618              1.903              2.677
 Vibration    19          0.620              1.897              2.609
 Vibration    20          0.622              1.891              2.545
 Vibration    21          0.624              1.883              2.466
 Vibration    22          0.629              1.868              2.341
 Vibration    23          0.631              1.861              2.282
 Vibration    24          0.634              1.850              2.205
 Vibration    25          0.637              1.844              2.158
 Vibration    26          0.649              1.805              1.932
 Vibration    27          0.655              1.787              1.841
 Vibration    28          0.659              1.773              1.777
 Vibration    29          0.666              1.754              1.693
 Vibration    30          0.667              1.751              1.681
 Vibration    31          0.681              1.709              1.528
 Vibration    32          0.683              1.700              1.499
 Vibration    33          0.687              1.691              1.471
 Vibration    34          0.688              1.687              1.457
 Vibration    35          0.700              1.651              1.351
 Vibration    36          0.707              1.630              1.297
 Vibration    37          0.722              1.588              1.195
 Vibration    38          0.728              1.572              1.159
 Vibration    39          0.733              1.559              1.131
 Vibration    40          0.739              1.542              1.096
 Vibration    41          0.776              1.445              0.921
 Vibration    42          0.782              1.428              0.893
 Vibration    43          0.799              1.384              0.829
 Vibration    44          0.811              1.356              0.789
 Vibration    45          0.820              1.334              0.759
 Vibration    46          0.828              1.313              0.734
 Vibration    47          0.849              1.264              0.674
 Vibration    48          0.855              1.252              0.660
 Vibration    49          0.878              1.200              0.604
 Vibration    50          0.884              1.185              0.589
 Vibration    51          0.896              1.160              0.564
 Vibration    52          0.924              1.100              0.508
 Vibration    53          0.925              1.098              0.506
 Vibration    54          0.937              1.074              0.485
 Vibration    55          0.962              1.023              0.443
 Vibration    56          0.972              1.004              0.428

                           ! Non-Optimized Parameters !
 Normal termination of Gaussian 16 at Wed Jun  5 15:52:28 2019.
