 Gaussian 16, Revision A.03,
 Gaussian 16:  AS64L-G16RevA.03 25-Dec-2016

 ----------------------------------------------------------------------
 #p opt freq=noraman 6-31g(d) scrf=(solvent=tetrahydrofuran,pcm) pop=no
 ne b1b95
 ----------------------------------------------------------------------

 -----
 title
 -----
 Symbolic Z-matrix:
 Charge =  0 Multiplicity = 1

 SCF Done:  E(RB1B95) =  -2297.48324798     A.U. after   13 cycles
 SCF Done:  E(RB1B95) =  -2297.48323814     A.U. after    8 cycles
 SCF Done:  E(RB1B95) =  -2297.48324805     A.U. after    8 cycles
 Optimization completed.
    -- Stationary point found.
 Normal termination of Gaussian 16 at Sun Jun  9 23:29:26 2019.

 --------------------------------------------------------------------
 #P Geom=AllCheck Guess=TCheck SCRF=Check GenChk RB1B95/6-31G(d) Freq
 --------------------------------------------------------------------

 Structure from the checkpoint file:  "/scratch/users/ekwan/clay_new-glu_gluC6-bisCF3-sm-b1b95-631gd-pcm_thf/Gau-54974.chk"
 -----
 title
 -----
 Charge =  0 Multiplicity = 1

                         Standard orientation:
 ---------------------------------------------------------------------
 Center     Atomic      Atomic             Coordinates (Angstroms)
 Number     Number       Type             X           Y           Z
 ---------------------------------------------------------------------
      1          6           0        3.484578   -0.069424    0.704642
      2          6           0        3.344152   -0.455523   -0.762008
      3          6           0        1.874754   -0.448116   -1.191395
      4          6           0        1.258696    1.080492    0.509574
      5          6           0        2.698817    1.200405    0.991703
      6          1           0        1.761369   -0.587714   -2.265346
      7          1           0        3.843912    0.313025   -1.370989
      8          1           0        3.079303   -0.879813    1.324988
      9          1           0        0.752192    0.294976    1.085338
     10          1           0        3.171893    2.035990    0.462363
     11          8           0        1.225629    0.728526   -0.879421
     12          8           0        1.266918   -1.580652   -0.521131
     13          8           0        3.950409   -1.702377   -0.949227
     14          8           0        4.831278    0.176211    1.033167
     15          8           0        2.668251    1.446294    2.378052
     16          6           0        0.479995    2.369317    0.703519
     17          1           0        0.318506    2.489024    1.776148
     18          1           0       -0.496601    2.274953    0.211762
     19          8           0        1.142776    3.531633    0.274921
     20         16           0       -0.029392   -2.272354   -1.188696
     21          8           0       -0.109245   -3.574698   -0.566701
     22          8           0        0.057355   -2.119461   -2.629538
     23          6           0       -1.383552   -1.289075   -0.603583
     24          6           0       -1.985622   -1.626845    0.599671
     25          6           0       -1.818245   -0.216691   -1.368992
     26          6           0       -3.051119   -0.856339    1.045815
     27          1           0       -1.634877   -2.478452    1.168944
     28          6           0       -2.881518    0.541743   -0.899996
     29          1           0       -1.342923    0.012902   -2.313823
     30          6           0       -3.500400    0.227751    0.303645
     31          1           0       -4.332000    0.822716    0.659623
     32          6           0        4.085916   -2.088574   -2.300643
     33          1           0        3.123264   -2.365788   -2.745998
     34          1           0        4.540343   -1.289760   -2.899243
     35          1           0        4.738486   -2.960785   -2.315051
     36          6           0        5.498846   -0.918014    1.627143
     37          1           0        6.507299   -0.577336    1.864310
     38          1           0        5.001656   -1.225846    2.555038
     39          1           0        5.554053   -1.773682    0.949761
     40          6           0        3.435209    2.565898    2.771845
     41          1           0        3.325006    2.660140    3.852690
     42          1           0        4.492215    2.425250    2.526783
     43          1           0        3.069001    3.479912    2.290740
     44          6           0        1.089121    3.761978   -1.117274
     45          1           0        1.408922    4.791968   -1.279900
     46          1           0        0.066617    3.641187   -1.495169
     47          1           0        1.748376    3.089557   -1.673607
     48          6           0       -3.759726   -1.233058    2.315364
     49          9           0       -2.932467   -1.836237    3.177470
     50          9           0       -4.772208   -2.079365    2.077935
     51          9           0       -4.277146   -0.158212    2.923637
     52          6           0       -3.334234    1.743481   -1.677252
     53          9           0       -2.693828    2.855239   -1.272669
     54          9           0       -4.643491    1.967883   -1.519089
     55          9           0       -3.092717    1.604582   -2.985269
 ---------------------------------------------------------------------

 SCF Done:  E(RB1B95) =  -2297.48324805     A.U. after    1 cycles

 Isotropic polarizability for W=    0.000000      271.29 Bohr**3.
 End of Minotr F.D. properties file   721 does not exist.

                      1                      2                      3
                      A                      A                      A
 Frequencies --     13.0250                19.5611                21.3573
 Red. masses --      9.7909                12.9746                 7.1248
 Frc consts  --      0.0010                 0.0029                 0.0019
 IR Inten    --      0.0293                 0.1248                 0.3392

                      4                      5                      6
                      A                      A                      A
 Frequencies --     23.0770                36.6116                46.7413
 Red. masses --     11.5079                 5.0057                 3.5397
 Frc consts  --      0.0036                 0.0040                 0.0046
 IR Inten    --      0.1646                 1.0753                 0.0852

                      7                      8                      9
                      A                      A                      A
 Frequencies --     57.4981                64.3284                69.2243
 Red. masses --      6.9672                 4.2063                 2.8544
 Frc consts  --      0.0136                 0.0103                 0.0081
 IR Inten    --      0.0127                 2.1776                 5.5300

                     10                     11                     12
                      A                      A                      A
 Frequencies --     75.1832                84.9571                90.4347
 Red. masses --      2.9989                 3.1569                 3.1232
 Frc consts  --      0.0100                 0.0134                 0.0150
 IR Inten    --      4.0479                 0.3186                 2.8794

                     13                     14                     15
                      A                      A                      A
 Frequencies --    100.8316               104.4214               105.9324
 Red. masses --      6.8630                 7.5204                 3.9340
 Frc consts  --      0.0411                 0.0483                 0.0260
 IR Inten    --      1.4500                 3.9217                 1.8100

                     16                     17                     18
                      A                      A                      A
 Frequencies --    118.7924               120.9262               150.8047
 Red. masses --      8.6004                 2.8724                 1.3393
 Frc consts  --      0.0715                 0.0247                 0.0179
 IR Inten    --      1.6164                 4.4328                 0.9163

                     19                     20                     21
                      A                      A                      A
 Frequencies --    156.7978               170.2041               175.5595
 Red. masses --      7.4237                 4.0370                 2.6749
 Frc consts  --      0.1075                 0.0689                 0.0486
 IR Inten    --      0.1126                 0.8963                 0.8617

                     22                     23                     24
                      A                      A                      A
 Frequencies --    184.8447               190.5757               204.1350
 Red. masses --      1.6643                 2.3338                 3.4427
 Frc consts  --      0.0335                 0.0499                 0.0845
 IR Inten    --      2.0029                 1.2084                 9.5691

                     25                     26                     27
                      A                      A                      A
 Frequencies --    215.8066               231.3164               241.9211
 Red. masses --      1.8163                 1.8181                10.8488
 Frc consts  --      0.0498                 0.0573                 0.3741
 IR Inten    --      2.0994                 5.6530                 0.0132

                     28                     29                     30
                      A                      A                      A
 Frequencies --    246.0873               258.9413               264.8658
 Red. masses --      3.3460                 6.8462                 3.3907
 Frc consts  --      0.1194                 0.2705                 0.1402
 IR Inten    --      4.1611                 6.9777                11.6865

                     31                     32                     33
                      A                      A                      A
 Frequencies --    283.8524               287.4345               293.9954
 Red. masses --     11.8358                 4.4582                11.2810
 Frc consts  --      0.5619                 0.2170                 0.5745
 IR Inten    --      3.7657                 8.9974                 6.3078

                     34                     35                     36
                      A                      A                      A
 Frequencies --    296.8937               317.7165               326.8195
 Red. masses --      7.4378                 5.3952                 3.8820
 Frc consts  --      0.3863                 0.3209                 0.2443
 IR Inten    --     13.1434                 0.2327                 4.1646

                     37                     38                     39
                      A                      A                      A
 Frequencies --    343.8294               351.4987               359.4693
 Red. masses --      6.7447                 5.3125                 5.8718
 Frc consts  --      0.4698                 0.3867                 0.4470
 IR Inten    --      1.5135                 2.8853                 8.6058

                     40                     41                     42
                      A                      A                      A
 Frequencies --    372.3332               414.2492               422.8527
 Red. masses --      8.8879                 9.8769                 8.8010
 Frc consts  --      0.7260                 0.9986                 0.9272
 IR Inten    --     14.5626                14.0643                 7.5547

                     43                     44                     45
                      A                      A                      A
 Frequencies --    435.7071               455.5349               469.5490
 Red. masses --      2.0870                 5.7790                 8.6909
 Frc consts  --      0.2334                 0.7066                 1.1290
 IR Inten    --      7.2490                11.4342                15.3127

                     46                     47                     48
                      A                      A                      A
 Frequencies --    472.2917               496.3383               501.6204
 Red. masses --      3.9065                 7.7469                11.7090
 Frc consts  --      0.5134                 1.1244                 1.7359
 IR Inten    --      6.5846                14.7419                 1.5859

                     49                     50                     51
                      A                      A                      A
 Frequencies --    524.3153               532.7194               542.6506
 Red. masses --      4.2409                 9.9999                 5.5542
 Frc consts  --      0.6869                 1.6720                 0.9636
 IR Inten    --     38.1433                40.4391                 3.2583

                     52                     53                     54
                      A                      A                      A
 Frequencies --    568.4272               572.8234               584.6949
 Red. masses --      3.9001                14.0970                11.3164
 Frc consts  --      0.7425                 2.7253                 2.2794
 IR Inten    --     42.8498                 6.9322               270.4491

                     55                     56                     57
                      A                      A                      A
 Frequencies --    608.7797               618.4607               642.1910
 Red. masses --      6.9569                 7.9979                 5.6217
 Frc consts  --      1.5191                 1.8024                 1.3660
 IR Inten    --     35.3716                 2.6818                13.8541

                     58                     59                     60
                      A                      A                      A
 Frequencies --    680.0340               682.2636               690.3091
 Red. masses --      7.8290                12.7781                 5.8826
 Frc consts  --      2.1331                 3.5045                 1.6516
 IR Inten    --      0.8384                62.3592                29.8757

                     61                     62                     63
                      A                      A                      A
 Frequencies --    712.3347               724.3875               743.0800
 Red. masses --      2.6408                 9.7467                 5.3703
 Frc consts  --      0.7895                 3.0133                 1.7471
 IR Inten    --     29.2511                 3.1877                49.3402

                     64                     65                     66
                      A                      A                      A
 Frequencies --    830.8250               851.8255               861.7144
 Red. masses --      6.3039                 3.9049                10.9312
 Frc consts  --      2.5638                 1.6694                 4.7824
 IR Inten    --    228.9563                29.6655               410.6948

                     67                     68                     69
                      A                      A                      A
 Frequencies --    872.2136               897.6714               924.3893
 Red. masses --     12.0831                 4.0133                 1.5425
 Frc consts  --      5.4159                 1.9054                 0.7766
 IR Inten    --     21.3693                97.8214                71.6333

                     70                     71                     72
                      A                      A                      A
 Frequencies --    946.7585               956.4811               961.0609
 Red. masses --      2.7582                 1.3743                 1.3628
 Frc consts  --      1.4567                 0.7408                 0.7416
 IR Inten    --     26.3893                 0.1077                 4.4386

                     73                     74                     75
                      A                      A                      A
 Frequencies --    989.6447               998.4284              1014.8379
 Red. masses --      4.7955                 4.0123                 6.4031
 Frc consts  --      2.7672                 2.3566                 3.8854
 IR Inten    --     34.0345                30.3639                 3.4560

                     76                     77                     78
                      A                      A                      A
 Frequencies --   1031.2105              1045.7489              1062.3545
 Red. masses --      3.8200                 3.7186                 3.8351
 Frc consts  --      2.3934                 2.3960                 2.5502
 IR Inten    --     40.0945                 9.3869               135.1721

                     79                     80                     81
                      A                      A                      A
 Frequencies --   1103.8698              1133.7852              1134.7963
 Red. masses --      2.8673                 6.6698                 3.0726
 Frc consts  --      2.0586                 5.0516                 2.3313
 IR Inten    --     13.2971                36.1557               117.9936

                     82                     83                     84
                      A                      A                      A
 Frequencies --   1146.7980              1147.7797              1148.7762
 Red. masses --      2.2029                 2.0768                 1.8141
 Frc consts  --      1.7069                 1.6120                 1.4105
 IR Inten    --     49.1149                55.5556                24.2626

                     85                     86                     87
                      A                      A                      A
 Frequencies --   1156.1346              1179.2904              1183.8251
 Red. masses --      2.4399                 3.1712                 2.7685
 Frc consts  --      1.9215                 2.5984                 2.2860
 IR Inten    --    168.8448                72.6469                35.0082

                     88                     89                     90
                      A                      A                      A
 Frequencies --   1187.1148              1187.7752              1191.0007
 Red. masses --      4.8944                 1.3532                 1.3120
 Frc consts  --      4.0638                 1.1248                 1.0965
 IR Inten    --    691.4414                15.3891                21.9890

                     91                     92                     93
                      A                      A                      A
 Frequencies --   1191.4361              1193.9127              1200.5934
 Red. masses --      1.4522                 1.3263                 1.7201
 Frc consts  --      1.2145                 1.1139                 1.4608
 IR Inten    --      3.1792                14.5196                70.2950

                     94                     95                     96
                      A                      A                      A
 Frequencies --   1203.7800              1209.4783              1215.7853
 Red. masses --      8.6549                 3.2762                12.5934
 Frc consts  --      7.3894                 2.8237                10.9674
 IR Inten    --    380.3989                81.2975               348.7397

                     97                     98                     99
                      A                      A                      A
 Frequencies --   1221.2232              1223.6593              1232.3130
 Red. masses --      2.5947                 2.5249                 1.6620
 Frc consts  --      2.2799                 2.2275                 1.4871
 IR Inten    --     89.8821               222.9950                38.9044

                    100                    101                    102
                      A                      A                      A
 Frequencies --   1241.9123              1245.5568              1247.1881
 Red. masses --      7.9135                 1.8441                 7.2497
 Frc consts  --      7.1912                 1.6856                 6.6441
 IR Inten    --    152.6773                11.0489               286.2010

                    103                    104                    105
                      A                      A                      A
 Frequencies --   1250.2192              1274.5696              1305.1750
 Red. masses --      2.3369                 1.8689                 1.5464
 Frc consts  --      2.1521                 1.7888                 1.5521
 IR Inten    --     85.5705                14.6351                65.5971

                    106                    107                    108
                      A                      A                      A
 Frequencies --   1305.5706              1313.0721              1344.6234
 Red. masses --      2.1428                 1.6487                 1.3877
 Frc consts  --      2.1519                 1.6748                 1.4782
 IR Inten    --    490.4313               272.1411                 5.1142

                    109                    110                    111
                      A                      A                      A
 Frequencies --   1351.2076              1370.5621              1376.2855
 Red. masses --      1.3210                 1.2547                 1.2493
 Frc consts  --      1.4210                 1.3886                 1.3942
 IR Inten    --     12.8317                41.6224                12.0380

                    112                    113                    114
                      A                      A                      A
 Frequencies --   1384.3186              1395.2283              1399.1729
 Red. masses --      4.2650                 1.5346                 6.5265
 Frc consts  --      4.8155                 1.7601                 7.5279
 IR Inten    --    231.4625                18.7921               184.3320

                    115                    116                    117
                      A                      A                      A
 Frequencies --   1407.9174              1412.6006              1419.6306
 Red. masses --      3.4161                 1.9594                 1.3691
 Frc consts  --      3.9897                 2.3037                 1.6256
 IR Inten    --      0.6394                26.4906                 4.9528

                    118                    119                    120
                      A                      A                      A
 Frequencies --   1431.8298              1437.0464              1446.5337
 Red. masses --      1.5082                 1.3308                 1.4207
 Frc consts  --      1.8217                 1.6193                 1.7515
 IR Inten    --     38.4067                15.0209                10.8184

                    121                    122                    123
                      A                      A                      A
 Frequencies --   1487.3999              1495.8130              1497.9783
 Red. masses --      1.0831                 1.1677                 1.1613
 Frc consts  --      1.4118                 1.5393                 1.5353
 IR Inten    --      4.4926                 1.6424                 0.5796

                    124                    125                    126
                      A                      A                      A
 Frequencies --   1500.2368              1507.8717              1508.9551
 Red. masses --      1.1266                 1.0936                 1.0497
 Frc consts  --      1.4940                 1.4650                 1.4083
 IR Inten    --      6.7448                15.0008                 2.5663

                    127                    128                    129
                      A                      A                      A
 Frequencies --   1510.3644              1514.3094              1519.6199
 Red. masses --      4.0692                 1.0600                 1.1104
 Frc consts  --      5.4692                 1.4321                 1.5108
 IR Inten    --      1.4750                 1.5850                 0.5458

                    130                    131                    132
                      A                      A                      A
 Frequencies --   1520.9029              1524.5089              1535.5002
 Red. masses --      4.4388                 1.1015                 1.0460
 Frc consts  --      6.0495                 1.5083                 1.4530
 IR Inten    --      0.0581                 6.3639                12.6782

                    133                    134                    135
                      A                      A                      A
 Frequencies --   1535.9745              1537.0636              1538.8021
 Red. masses --      1.0498                 1.0510                 1.0557
 Frc consts  --      1.4592                 1.4630                 1.4729
 IR Inten    --      9.7387                 7.0657                 8.1409

                    136                    137                    138
                      A                      A                      A
 Frequencies --   1683.9897              1703.9965              3028.9632
 Red. masses --      6.8605                 6.5824                 1.0822
 Frc consts  --     11.4627                11.2608                 5.8499
 IR Inten    --     21.5115                25.1088                30.1924

                    139                    140                    141
                      A                      A                      A
 Frequencies --   3042.9104              3049.1526              3055.1783
 Red. masses --      1.0355                 1.0386                 1.0355
 Frc consts  --      5.6490                 5.6892                 5.6945
 IR Inten    --     69.1271                64.9789                69.5493

                    142                    143                    144
                      A                      A                      A
 Frequencies --   3057.0435              3058.8105              3062.5509
 Red. masses --      1.0352                 1.0783                 1.0774
 Frc consts  --      5.7003                 5.9444                 5.9540
 IR Inten    --     38.6949                33.7916                12.0801

                    145                    146                    147
                      A                      A                      A
 Frequencies --   3073.5703              3082.5179              3106.8118
 Red. masses --      1.0688                 1.0845                 1.1059
 Frc consts  --      5.9487                 6.0715                 6.2894
 IR Inten    --     59.5060                71.4764                61.5242

                    148                    149                    150
                      A                      A                      A
 Frequencies --   3128.2680              3129.4572              3130.5379
 Red. masses --      1.1030                 1.1052                 1.0989
 Frc consts  --      6.3597                 6.3774                 6.3453
 IR Inten    --     45.1311                58.3469                39.6260

                    151                    152                    153
                      A                      A                      A
 Frequencies --   3156.8048              3171.9395              3175.6475
 Red. masses --      1.0983                 1.1035                 1.0881
 Frc consts  --      6.4489                 6.5412                 6.4654
 IR Inten    --     19.7190                45.1432                15.5501

                    154                    155                    156
                      A                      A                      A
 Frequencies --   3176.0057              3176.4895              3184.7269
 Red. masses --      1.1030                 1.1044                 1.0997
 Frc consts  --      6.5550                 6.5657                 6.5717
 IR Inten    --     33.9368                35.4791                28.1238

                    157                    158                    159
                      A                      A                      A
 Frequencies --   3262.0362              3266.4213              3269.9845
 Red. masses --      1.0926                 1.0925                 1.0925
 Frc consts  --      6.8502                 6.8678                 6.8830
 IR Inten    --      1.4511                 7.3985                 6.6214

 - Thermochemistry -
 -------------------
 Temperature   298.150 Kelvin.  Pressure   1.00000 Atm.
 Atom     1 has atomic number  6 and mass  12.00000

 Molecular mass:   512.09396 amu.
 Principal axes and moments of inertia in atomic units:
                           1         2         3
     Eigenvalues --  ******************************
           X            0.99995   0.00132   0.01018
           Y           -0.00251   0.99310   0.11724
           Z           -0.00996  -0.11726   0.99305
 This molecule is an asymmetric top.
 Rotational symmetry number  1.
 Warning -- assumption of classical behavior for rotation
           may cause significant error
 Rotational temperatures (Kelvin)      0.00731     0.00396     0.00373
 Rotational constants (GHZ):           0.15230     0.08256     0.07772
 Zero-point vibrational energy    1091842.7 (Joules/Mol)
                                  260.95667 (Kcal/Mol)
 Warning -- explicit consideration of  56 degrees of freedom as
           vibrations may cause significant error
 Vibrational temperatures:     18.74    28.14    30.73    33.20    52.68
          (Kelvin)             67.25    82.73    92.55    99.60   108.17
                              122.23   130.12   145.07   150.24   152.41
                              170.92   173.99   216.97   225.60   244.89
                              252.59   265.95   274.20   293.70   310.50
                              332.81   348.07   354.06   372.56   381.08
                              408.40   413.55   422.99   427.16   457.12
                              470.22   494.69   505.73   517.20   535.70
                              596.01   608.39   626.89   655.41   675.58
                              679.52   714.12   721.72   754.37   766.46
                              780.75   817.84   824.17   841.25   875.90
                              889.83   923.97   978.42   981.63   993.20
                             1024.89  1042.23  1069.13  1195.37  1225.59
                             1239.81  1254.92  1291.55  1329.99  1362.17
                             1376.16  1382.75  1423.88  1436.52  1460.13
                             1483.68  1504.60  1528.49  1588.22  1631.26
                             1632.72  1649.99  1651.40  1652.83  1663.42
                             1696.74  1703.26  1707.99  1708.94  1713.58
                             1714.21  1717.77  1727.39  1731.97  1740.17
                             1749.24  1757.07  1760.57  1773.02  1786.83
                             1792.08  1794.43  1798.79  1833.82  1877.86
                             1878.42  1889.22  1934.61  1944.09  1971.93
                             1980.17  1991.73  2007.42  2013.10  2025.68
                             2032.42  2042.53  2060.08  2067.59  2081.24
                             2140.04  2152.14  2155.26  2158.51  2169.49
                             2171.05  2173.08  2178.75  2186.39  2188.24
                             2193.43  2209.24  2209.92  2211.49  2213.99
                             2422.89  2451.67  4358.00  4378.07  4387.05
                             4395.72  4398.40  4400.95  4406.33  4422.18
                             4435.06  4470.01  4500.88  4502.59  4504.15
                             4541.94  4563.71  4569.05  4569.56  4570.26
                             4582.11  4693.34  4699.65  4704.78

 Zero-point correction=                           0.415861 (Hartree/Particle)
 Thermal correction to Energy=                    0.449053
 Thermal correction to Enthalpy=                  0.449997
 Thermal correction to Gibbs Free Energy=         0.347311
 Sum of electronic and zero-point Energies=          -2297.067387
 Sum of electronic and thermal Energies=             -2297.034195
 Sum of electronic and thermal Enthalpies=           -2297.033251
 Sum of electronic and thermal Free Energies=        -2297.135937

                     E (Thermal)             CV                S
                      KCal/Mol        Cal/Mol-Kelvin    Cal/Mol-Kelvin
 Total                  281.785            119.830            216.120
 Electronic               0.000              0.000              0.000
 Translational            0.889              2.981             44.587
 Rotational               0.889              2.981             37.040
 Vibrational            280.007            113.868            134.493
 Vibration     1          0.593              1.987              7.486
 Vibration     2          0.593              1.986              6.678
 Vibration     3          0.593              1.985              6.504
 Vibration     4          0.593              1.985              6.350
 Vibration     5          0.594              1.982              5.434
 Vibration     6          0.595              1.979              4.951
 Vibration     7          0.596              1.975              4.541
 Vibration     8          0.597              1.971              4.320
 Vibration     9          0.598              1.969              4.175
 Vibration    10          0.599              1.966              4.013
 Vibration    11          0.601              1.960              3.773
 Vibration    12          0.602              1.956              3.651
 Vibration    13          0.604              1.948              3.438
 Vibration    14          0.605              1.946              3.370
 Vibration    15          0.605              1.944              3.342
 Vibration    16          0.609              1.934              3.120
 Vibration    17          0.609              1.932              3.086
 Vibration    18          0.618              1.902              2.662
 Vibration    19          0.620              1.895              2.588
 Vibration    20          0.625              1.879              2.433
 Vibration    21          0.628              1.872              2.375
 Vibration    22          0.631              1.861              2.279
 Vibration    23          0.634              1.853              2.222
 Vibration    24          0.640              1.834              2.096
 Vibration    25          0.645              1.817              1.994
 Vibration    26          0.653              1.793              1.869
 Vibration    27          0.658              1.776              1.789
 Vibration    28          0.661              1.769              1.758
 Vibration    29          0.668              1.748              1.669
 Vibration    30          0.671              1.737              1.629
 Vibration    31          0.682              1.704              1.510
 Vibration    32          0.685              1.697              1.489
 Vibration    33          0.689              1.685              1.451
 Vibration    34          0.691              1.680              1.434
 Vibration    35          0.704              1.640              1.322
 Vibration    36          0.710              1.622              1.276
 Vibration    37          0.723              1.588              1.194
 Vibration    38          0.728              1.572              1.159
 Vibration    39          0.734              1.556              1.124
 Vibration    40          0.744              1.529              1.070
 Vibration    41          0.778              1.439              0.912
 Vibration    42          0.785              1.421              0.882
 Vibration    43          0.796              1.392              0.840
 Vibration    44          0.814              1.349              0.779
 Vibration    45          0.827              1.318              0.739
 Vibration    46          0.829              1.312              0.731
 Vibration    47          0.852              1.258              0.667
 Vibration    48          0.857              1.246              0.654
 Vibration    49          0.879              1.196              0.600
 Vibration    50          0.888              1.178              0.581
 Vibration    51          0.898              1.156              0.560
 Vibration    52          0.924              1.100              0.507
 Vibration    53          0.929              1.090              0.499
 Vibration    54          0.942              1.064              0.477
 Vibration    55          0.968              1.013              0.435
 Vibration    56          0.978              0.993              0.419

 Optimization completed.
    -- Stationary point found.
 Normal termination of Gaussian 16 at Mon Jun 10 00:03:39 2019.
