 Gaussian 16, Revision A.03,
 Gaussian 16:  AS64L-G16RevA.03 25-Dec-2016

 ----------------------------------------------------------------------
 #p opt freq=noraman pop=none 6-31g* scrf=(pcm,solvent=tetrahydrofuran)
  b972
 ----------------------------------------------------------------------

 -----
 title
 -----
 Symbolic Z-matrix:
 Charge =  0 Multiplicity = 1

 SCF Done:  E(RB972) =  -2297.47040948     A.U. after   13 cycles
 Optimization completed.
    -- Stationary point found.
 Normal termination of Gaussian 16 at Wed Jun  5 15:55:19 2019.

 -------------------------------------------------------------------
 #P Geom=AllCheck Guess=TCheck SCRF=Check GenChk RB972/6-31G(d) Freq
 -------------------------------------------------------------------

 Structure from the checkpoint file:  "/scratch/users/ekwan/clay_new-glu_gluC6-bisCF3-sm-b972-631gd-pcm_thf/Gau-1047.chk"
 -----
 title
 -----
 Charge =  0 Multiplicity = 1

                         Standard orientation:
 ---------------------------------------------------------------------
 Center     Atomic      Atomic             Coordinates (Angstroms)
 Number     Number       Type             X           Y           Z
 ---------------------------------------------------------------------
      1          6           0        3.540121   -0.245948    0.700237
      2          6           0        3.345548   -0.513856   -0.793310
      3          6           0        1.867937   -0.371410   -1.195659
      4          6           0        1.406009    1.110356    0.619933
      5          6           0        2.862406    1.067983    1.093941
      6          1           0        1.738990   -0.417556   -2.275395
      7          1           0        3.882429    0.270885   -1.346255
      8          1           0        3.083045   -1.059763    1.276214
      9          1           0        0.836292    0.351966    1.171426
     10          1           0        3.404794    1.897058    0.626355
     11          8           0        1.315063    0.827622   -0.787679
     12          8           0        1.168201   -1.504741   -0.609006
     13          8           0        3.867451   -1.778304   -1.105393
     14          8           0        4.915100   -0.136631    1.007144
     15          8           0        2.855070    1.204961    2.501144
     16          6           0        0.733846    2.454263    0.877976
     17          1           0        0.639640    2.561780    1.960577
     18          1           0       -0.274471    2.437355    0.445967
     19          8           0        1.452001    3.581123    0.429705
     20         16           0       -0.122113   -2.134018   -1.367126
     21          8           0       -0.210690   -3.492860   -0.869712
     22          8           0       -0.018630   -1.854741   -2.791500
     23          6           0       -1.491927   -1.202991   -0.708762
     24          6           0       -2.137753   -1.670088    0.431318
     25          6           0       -1.884916   -0.030889   -1.347021
     26          6           0       -3.203410   -0.934410    0.944319
     27          1           0       -1.818769   -2.591345    0.900924
     28          6           0       -2.945890    0.695374   -0.813564
     29          1           0       -1.378146    0.304626   -2.241744
     30          6           0       -3.606652    0.248197    0.328778
     31          1           0       -4.433318    0.816456    0.734773
     32          6           0        4.222369   -1.955436   -2.464620
     33          1           0        3.348191   -1.962969   -3.125853
     34          1           0        4.916127   -1.174674   -2.799806
     35          1           0        4.716278   -2.924848   -2.531896
     36          6           0        5.489098   -1.292300    1.589207
     37          1           0        6.534326   -1.051289    1.789665
     38          1           0        4.996830   -1.546761    2.536199
     39          1           0        5.439494   -2.152933    0.916567
     40          6           0        3.741934    2.189148    3.002188
     41          1           0        3.622184    2.191417    4.086793
     42          1           0        4.781240    1.953918    2.754559
     43          1           0        3.493587    3.183857    2.613739
     44          6           0        1.244401    3.926024   -0.927351
     45          1           0        1.689145    4.912359   -1.069894
     46          1           0        0.173720    3.981619   -1.162011
     47          1           0        1.716554    3.216553   -1.613109
     48          6           0       -3.963116   -1.454961    2.138738
     49          9           0       -3.173917   -2.174666    2.951995
     50          9           0       -4.977774   -2.252793    1.759279
     51          9           0       -4.493160   -0.455209    2.862027
     52          6           0       -3.338186    2.007724   -1.442770
     53          9           0       -2.638589    3.029595   -0.905726
     54          9           0       -4.638309    2.281524   -1.257150
     55          9           0       -3.099785    2.017601   -2.762966
 ---------------------------------------------------------------------

 SCF Done:  E(RB972) =  -2297.47040948     A.U. after    1 cycles

 Isotropic polarizability for W=    0.000000      273.34 Bohr**3.
 End of Minotr F.D. properties file   721 does not exist.

                      1                      2                      3
                      A                      A                      A
 Frequencies --     12.4525                17.3919                19.6216
 Red. masses --      9.5758                 7.1555                14.7415
 Frc consts  --      0.0009                 0.0013                 0.0033
 IR Inten    --      0.0925                 0.2376                 0.0106

                      4                      5                      6
                      A                      A                      A
 Frequencies --     22.9726                37.5191                39.5730
 Red. masses --     11.6742                 5.6863                 5.1671
 Frc consts  --      0.0036                 0.0047                 0.0048
 IR Inten    --      0.0264                 0.4000                 0.3634

                      7                      8                      9
                      A                      A                      A
 Frequencies --     48.5054                53.1250                54.4907
 Red. masses --      3.6875                 5.1552                 3.0498
 Frc consts  --      0.0051                 0.0086                 0.0053
 IR Inten    --      1.2204                 1.6789                 1.4683

                     10                     11                     12
                      A                      A                      A
 Frequencies --     65.9686                72.8429                78.0768
 Red. masses --      3.0423                 3.7169                 3.2183
 Frc consts  --      0.0078                 0.0116                 0.0116
 IR Inten    --      8.3976                 0.4406                 0.8108

                     13                     14                     15
                      A                      A                      A
 Frequencies --     82.8074               100.6365               101.1885
 Red. masses --      2.8170                 7.9161                 7.0184
 Frc consts  --      0.0114                 0.0472                 0.0423
 IR Inten    --      5.8680                 2.3108                 4.6989

                     16                     17                     18
                      A                      A                      A
 Frequencies --    106.6416               116.8136               150.3897
 Red. masses --      2.8360                 7.7913                 7.5025
 Frc consts  --      0.0190                 0.0626                 0.1000
 IR Inten    --      2.7352                 1.8788                 0.1485

                     19                     20                     21
                      A                      A                      A
 Frequencies --    154.6419               162.0715               167.3595
 Red. masses --      1.3582                 1.9190                 2.0446
 Frc consts  --      0.0191                 0.0297                 0.0337
 IR Inten    --      0.1065                 0.3959                 0.7877

                     22                     23                     24
                      A                      A                      A
 Frequencies --    176.4035               185.8508               191.8457
 Red. masses --      2.0809                 3.2079                 2.1085
 Frc consts  --      0.0382                 0.0653                 0.0457
 IR Inten    --      2.3716                 4.1188                 1.2918

                     25                     26                     27
                      A                      A                      A
 Frequencies --    198.5048               225.1088               238.5194
 Red. masses --      1.7684                 2.9001                12.1934
 Frc consts  --      0.0411                 0.0866                 0.4087
 IR Inten    --      0.6337                10.9787                 0.0823

                     28                     29                     30
                      A                      A                      A
 Frequencies --    245.8693               257.1192               259.0629
 Red. masses --      4.3746                 3.7685                 5.4430
 Frc consts  --      0.1558                 0.1468                 0.2152
 IR Inten    --      5.3957                11.7250                10.2364

                     31                     32                     33
                      A                      A                      A
 Frequencies --    282.6146               288.2041               290.9217
 Red. masses --     10.8563                 5.0378                 8.7163
 Frc consts  --      0.5109                 0.2465                 0.4346
 IR Inten    --      3.3433                 9.2443                 7.6252

                     34                     35                     36
                      A                      A                      A
 Frequencies --    293.7264               313.2124               323.9583
 Red. masses --      9.1516                 5.5103                 4.2185
 Frc consts  --      0.4652                 0.3185                 0.2608
 IR Inten    --      7.3046                 0.1303                 4.9472

                     37                     38                     39
                      A                      A                      A
 Frequencies --    343.3344               353.6644               357.9298
 Red. masses --      7.2199                 6.9212                 4.5047
 Frc consts  --      0.5014                 0.5101                 0.3400
 IR Inten    --      0.5299                 3.9261                 5.2500

                     40                     41                     42
                      A                      A                      A
 Frequencies --    366.7204               413.1230               420.7344
 Red. masses --      9.5388                10.1309                 8.7033
 Frc consts  --      0.7558                 1.0187                 0.9077
 IR Inten    --     14.1114                13.8134                 5.9483

                     43                     44                     45
                      A                      A                      A
 Frequencies --    442.7726               453.1645               464.9882
 Red. masses --      2.1699                 5.2061                 8.4288
 Frc consts  --      0.2506                 0.6299                 1.0737
 IR Inten    --      6.1967                12.8222                12.7966

                     46                     47                     48
                      A                      A                      A
 Frequencies --    471.4990               495.7926               501.9256
 Red. masses --      4.2075                 7.9870                12.0025
 Frc consts  --      0.5511                 1.1567                 1.7816
 IR Inten    --      9.9459                19.5748                 0.8536

                     49                     50                     51
                      A                      A                      A
 Frequencies --    525.6737               531.7061               543.5833
 Red. masses --      5.0774                10.9022                 4.4867
 Frc consts  --      0.8267                 1.8160                 0.7811
 IR Inten    --     43.6987                26.4180                15.8995

                     52                     53                     54
                      A                      A                      A
 Frequencies --    570.2799               570.6185               583.0915
 Red. masses --      3.9471                13.4340                11.7556
 Frc consts  --      0.7563                 2.5772                 2.3549
 IR Inten    --     37.4803                20.3612               273.2705

                     55                     56                     57
                      A                      A                      A
 Frequencies --    606.1512               614.5863               630.6033
 Red. masses --      6.7894                 8.1150                 5.7822
 Frc consts  --      1.4697                 1.8059                 1.3547
 IR Inten    --     43.4438                 2.2384                 9.5150

                     58                     59                     60
                      A                      A                      A
 Frequencies --    677.2310               683.2343               687.2143
 Red. masses --      7.6999                12.4721                 6.1956
 Frc consts  --      2.0807                 3.4303                 1.7239
 IR Inten    --      0.8737                59.9145                40.9099

                     61                     62                     63
                      A                      A                      A
 Frequencies --    709.8411               721.3651               734.5435
 Red. masses --      2.5948                 8.8687                 5.8231
 Frc consts  --      0.7703                 2.7191                 1.8511
 IR Inten    --     28.2673                 7.8034                71.8884

                     64                     65                     66
                      A                      A                      A
 Frequencies --    818.8138               843.4588               848.4023
 Red. masses --      8.3442                 3.8260                10.3413
 Frc consts  --      3.2961                 1.6037                 4.3856
 IR Inten    --    453.6127               125.9556               166.6022

                     67                     68                     69
                      A                      A                      A
 Frequencies --    863.4990               887.7518               916.8900
 Red. masses --     12.0831                 3.9811                 1.5661
 Frc consts  --      5.3083                 1.8486                 0.7757
 IR Inten    --     24.8340                53.5381                70.9156

                     70                     71                     72
                      A                      A                      A
 Frequencies --    937.2624               948.8103               961.5818
 Red. masses --      2.7679                 1.3994                 1.3695
 Frc consts  --      1.4326                 0.7422                 0.7461
 IR Inten    --     23.5135                 2.7964                 8.1508

                     73                     74                     75
                      A                      A                      A
 Frequencies --    979.7162               989.5309              1015.9825
 Red. masses --      4.7555                 4.1852                 6.0843
 Frc consts  --      2.6893                 2.4145                 3.7003
 IR Inten    --      8.9819                43.2761                10.3442

                     76                     77                     78
                      A                      A                      A
 Frequencies --   1020.5759              1036.6253              1053.8568
 Red. masses --      4.1981                 4.2839                 3.5892
 Frc consts  --      2.5763                 2.7123                 2.3486
 IR Inten    --     43.6759                13.6339               130.5580

                     79                     80                     81
                      A                      A                      A
 Frequencies --   1095.1621              1122.7431              1128.7822
 Red. masses --      3.1195                10.5929                 2.9236
 Frc consts  --      2.2044                 7.8673                 2.1948
 IR Inten    --     17.8750                76.2710               114.8813

                     82                     83                     84
                      A                      A                      A
 Frequencies --   1137.7416              1141.0566              1145.6014
 Red. masses --      2.5613                 2.3842                 2.0030
 Frc consts  --      1.9535                 1.8290                 1.5488
 IR Inten    --      9.7387                87.7638                38.5251

                     85                     86                     87
                      A                      A                      A
 Frequencies --   1149.4243              1165.6120              1172.3662
 Red. masses --      3.0452                 4.0962                 3.7315
 Frc consts  --      2.3704                 3.2790                 3.0218
 IR Inten    --    234.0774                61.8997               219.6823

                     88                     89                     90
                      A                      A                      A
 Frequencies --   1173.3348              1182.8619              1187.4321
 Red. masses --      4.8768                10.4227                 1.4832
 Frc consts  --      3.9557                 8.5921                 1.2321
 IR Inten    --    549.9065               399.3197                21.9736

                     91                     92                     93
                      A                      A                      A
 Frequencies --   1189.6807              1191.1294              1195.3251
 Red. masses --      1.5264                 1.4757                12.3858
 Frc consts  --      1.2728                 1.2335                10.4267
 IR Inten    --     13.2027                 7.2471               352.9131

                     94                     95                     96
                      A                      A                      A
 Frequencies --   1195.8206              1197.2805              1201.0578
 Red. masses --      1.2852                 1.6223                 3.0476
 Frc consts  --      1.0828                 1.3701                 2.5902
 IR Inten    --      1.0613                22.5516               151.0894

                     97                     98                     99
                      A                      A                      A
 Frequencies --   1208.9292              1223.0332              1224.0506
 Red. masses --      4.2374                 1.4618                 7.6711
 Frc consts  --      3.6488                 1.2883                 6.7718
 IR Inten    --    176.5090                75.7238               167.6645

                    100                    101                    102
                      A                      A                      A
 Frequencies --   1229.2072              1231.9868              1241.8908
 Red. masses --      6.3549                 1.5506                 1.8416
 Frc consts  --      5.6573                 1.3866                 1.6734
 IR Inten    --    291.0279                28.2390                18.9471

                    103                    104                    105
                      A                      A                      A
 Frequencies --   1247.1203              1273.1801              1297.3560
 Red. masses --      1.7039                 1.7796                 3.2370
 Frc consts  --      1.5614                 1.6996                 3.2100
 IR Inten    --     44.0205                 7.7859               775.3724

                    106                    107                    108
                      A                      A                      A
 Frequencies --   1313.5397              1318.9205              1350.7915
 Red. masses --      1.4531                 1.3633                 1.3617
 Frc consts  --      1.4772                 1.3973                 1.4639
 IR Inten    --      2.2715                28.6799                 2.3816

                    109                    110                    111
                      A                      A                      A
 Frequencies --   1355.6977              1365.6999              1379.7312
 Red. masses --      1.2544                 9.3218                 1.2505
 Frc consts  --      1.3583                10.2438                 1.4025
 IR Inten    --     13.3479               265.6739                24.6849

                    112                    113                    114
                      A                      A                      A
 Frequencies --   1382.8327              1385.9122              1397.4801
 Red. masses --      1.3298                 4.4299                 4.7367
 Frc consts  --      1.4982                 5.0132                 5.4503
 IR Inten    --     75.8720               136.2117                 2.3994

                    115                    116                    117
                      A                      A                      A
 Frequencies --   1402.4257              1411.1965              1425.0489
 Red. masses --      1.3497                 1.4655                 1.3117
 Frc consts  --      1.5640                 1.7195                 1.5695
 IR Inten    --      0.2520                17.4762                 9.3197

                    118                    119                    120
                      A                      A                      A
 Frequencies --   1435.4249              1442.5976              1454.4614
 Red. masses --      1.4084                 1.3041                 1.3426
 Frc consts  --      1.7098                 1.5991                 1.6734
 IR Inten    --     38.1471                11.6280                14.0807

                    121                    122                    123
                      A                      A                      A
 Frequencies --   1496.7425              1499.3897              1502.7103
 Red. masses --      1.0936                 3.7541                 1.1719
 Frc consts  --      1.4434                 4.9726                 1.5592
 IR Inten    --      3.0085                 4.1623                 0.0247

                    124                    125                    126
                      A                      A                      A
 Frequencies --   1504.2476              1507.6227              1508.1611
 Red. masses --      1.1677                 1.1242                 4.1578
 Frc consts  --      1.5568                 1.5056                 5.5720
 IR Inten    --      1.1058                 5.5609                 0.4291

                    127                    128                    129
                      A                      A                      A
 Frequencies --   1515.9229              1516.0069              1516.9912
 Red. masses --      1.0510                 1.0656                 1.0535
 Frc consts  --      1.4230                 1.4430                 1.4284
 IR Inten    --      3.4552                15.3769                 1.1326

                    130                    131                    132
                      A                      A                      A
 Frequencies --   1523.3488              1526.7313              1535.7397
 Red. masses --      1.1255                 1.0810                 1.0549
 Frc consts  --      1.5388                 1.4846                 1.4659
 IR Inten    --      1.1549                 5.0147                12.8968

                    133                    134                    135
                      A                      A                      A
 Frequencies --   1541.0443              1541.6298              1543.1986
 Red. masses --      1.0502                 1.0490                 1.0555
 Frc consts  --      1.4695                 1.4689                 1.4811
 IR Inten    --      9.3318                 7.5444                10.4153

                    136                    137                    138
                      A                      A                      A
 Frequencies --   1668.5078              1689.3609              3037.7112
 Red. masses --      6.3540                 6.0945                 1.0783
 Frc consts  --     10.4221                10.2479                 5.8627
 IR Inten    --     18.0879                21.9908                26.5684

                    139                    140                    141
                      A                      A                      A
 Frequencies --   3045.5978              3048.0104              3048.4527
 Red. masses --      1.0385                 1.0366                 1.0376
 Frc consts  --      5.6756                 5.6743                 5.6813
 IR Inten    --     88.2236                99.8527                32.0165

                    142                    143                    144
                      A                      A                      A
 Frequencies --   3053.3994              3067.1167              3074.9877
 Red. masses --      1.0339                 1.0730                 1.0836
 Frc consts  --      5.6794                 5.9469                 6.0368
 IR Inten    --     72.3119                12.5757                19.6451

                    145                    146                    147
                      A                      A                      A
 Frequencies --   3077.2767              3095.5453              3110.7902
 Red. masses --      1.0748                 1.0851                 1.1061
 Frc consts  --      5.9965                 6.1261                 6.3066
 IR Inten    --     50.1243                61.7085                66.0049

                    148                    149                    150
                      A                      A                      A
 Frequencies --   3126.0499              3129.8658              3130.6120
 Red. masses --      1.0996                 1.0989                 1.1033
 Frc consts  --      6.3310                 6.3428                 6.3707
 IR Inten    --     51.7331                71.2247                39.7568

                    151                    152                    153
                      A                      A                      A
 Frequencies --   3153.2716              3170.9761              3174.3126
 Red. masses --      1.1000                 1.1039                 1.1037
 Frc consts  --      6.4441                 6.5396                 6.5524
 IR Inten    --     23.0512                48.5033                40.9606

                    154                    155                    156
                      A                      A                      A
 Frequencies --   3174.6032              3181.6798              3183.9335
 Red. masses --      1.1044                 1.0905                 1.0979
 Frc consts  --      6.5577                 6.5043                 6.5577
 IR Inten    --     39.8771                21.1265                23.7860

                    157                    158                    159
                      A                      A                      A
 Frequencies --   3271.7407              3275.0325              3279.3573
 Red. masses --      1.0923                 1.0922                 1.0921
 Frc consts  --      6.8889                 6.9023                 6.9201
 IR Inten    --      0.7309                 5.4822                 4.3376

 - Thermochemistry -
 -------------------
 Temperature   298.150 Kelvin.  Pressure   1.00000 Atm.
 Atom     1 has atomic number  6 and mass  12.00000

 Molecular mass:   512.09396 amu.
 Principal axes and moments of inertia in atomic units:
                           1         2         3
     Eigenvalues --  ******************************
           X            0.99994  -0.00033   0.01054
           Y           -0.00056   0.99638   0.08504
           Z           -0.01053  -0.08504   0.99632
 This molecule is an asymmetric top.
 Rotational symmetry number  1.
 Warning -- assumption of classical behavior for rotation
           may cause significant error
 Rotational temperatures (Kelvin)      0.00722     0.00382     0.00353
 Rotational constants (GHZ):           0.15041     0.07968     0.07364
 Zero-point vibrational energy    1088917.2 (Joules/Mol)
                                  260.25747 (Kcal/Mol)
 Warning -- explicit consideration of  56 degrees of freedom as
           vibrations may cause significant error
 Vibrational temperatures:     17.92    25.02    28.23    33.05    53.98
          (Kelvin)             56.94    69.79    76.43    78.40    94.91
                              104.80   112.34   119.14   144.79   145.59
                              153.43   168.07   216.38   222.50   233.18
                              240.79   253.81   267.40   276.02   285.60
                              323.88   343.18   353.75   369.94   372.73
                              406.62   414.66   418.57   422.61   450.64
                              466.10   493.98   508.84   514.98   527.63
                              594.39   605.34   637.05   652.00   669.01
                              678.38   713.33   722.16   756.33   765.01
                              782.10   820.51   820.99   838.94   872.12
                              884.25   907.30   974.38   983.02   988.75
                             1021.30  1037.88  1056.84  1178.09  1213.55
                             1220.66  1242.38  1277.28  1319.20  1348.51
                             1365.13  1383.50  1409.59  1423.71  1461.77
                             1468.38  1491.47  1516.26  1575.69  1615.38
                             1624.07  1636.96  1641.73  1648.26  1653.77
                             1677.06  1686.77  1688.17  1701.87  1708.45
                             1711.69  1713.77  1719.81  1720.52  1722.62
                             1728.05  1739.38  1759.67  1761.14  1768.55
                             1772.55  1786.80  1794.33  1831.82  1866.61
                             1889.89  1897.63  1943.49  1950.55  1964.94
                             1985.13  1989.59  1994.02  2010.66  2017.78
                             2030.40  2050.33  2065.26  2075.58  2092.65
                             2153.48  2157.29  2162.06  2164.28  2169.13
                             2169.91  2181.07  2181.20  2182.61  2191.76
                             2196.63  2209.59  2217.22  2218.06  2220.32
                             2400.61  2430.61  4370.59  4381.94  4385.41
                             4386.04  4393.16  4412.90  4424.22  4427.51
                             4453.80  4475.73  4497.69  4503.18  4504.25
                             4536.85  4562.33  4567.13  4567.55  4577.73
                             4580.97  4707.31  4712.04  4718.26

 Zero-point correction=                           0.414747 (Hartree/Particle)
 Thermal correction to Energy=                    0.448385
 Thermal correction to Enthalpy=                  0.449330
 Thermal correction to Gibbs Free Energy=         0.344394
 Sum of electronic and zero-point Energies=          -2297.055663
 Sum of electronic and thermal Energies=             -2297.022024
 Sum of electronic and thermal Enthalpies=           -2297.021080
 Sum of electronic and thermal Free Energies=        -2297.126015

                     E (Thermal)             CV                S
                      KCal/Mol        Cal/Mol-Kelvin    Cal/Mol-Kelvin
 Total                  281.366            120.413            220.855
 Electronic               0.000              0.000              0.000
 Translational            0.889              2.981             44.587
 Rotational               0.889              2.981             37.141
 Vibrational            279.589            114.452            139.128
 Vibration     1          0.593              1.987              7.575
 Vibration     2          0.593              1.986              6.912
 Vibration     3          0.593              1.986              6.672
 Vibration     4          0.593              1.985              6.359
 Vibration     5          0.594              1.982              5.386
 Vibration     6          0.594              1.981              5.280
 Vibration     7          0.595              1.978              4.877
 Vibration     8          0.596              1.976              4.698
 Vibration     9          0.596              1.976              4.647
 Vibration    10          0.597              1.971              4.270
 Vibration    11          0.599              1.967              4.075
 Vibration    12          0.599              1.964              3.939
 Vibration    13          0.600              1.961              3.823
 Vibration    14          0.604              1.949              3.442
 Vibration    15          0.604              1.948              3.431
 Vibration    16          0.606              1.944              3.329
 Vibration    17          0.608              1.935              3.152
 Vibration    18          0.618              1.902              2.667
 Vibration    19          0.620              1.897              2.614
 Vibration    20          0.622              1.889              2.525
 Vibration    21          0.624              1.883              2.465
 Vibration    22          0.628              1.871              2.366
 Vibration    23          0.632              1.859              2.269
 Vibration    24          0.634              1.851              2.210
 Vibration    25          0.637              1.842              2.147
 Vibration    26          0.650              1.803              1.918
 Vibration    27          0.656              1.782              1.814
 Vibration    28          0.660              1.770              1.760
 Vibration    29          0.667              1.751              1.681
 Vibration    30          0.668              1.747              1.668
 Vibration    31          0.682              1.706              1.518
 Vibration    32          0.685              1.696              1.484
 Vibration    33          0.687              1.691              1.469
 Vibration    34          0.689              1.685              1.452
 Vibration    35          0.701              1.648              1.345
 Vibration    36          0.709              1.628              1.290
 Vibration    37          0.722              1.589              1.197
 Vibration    38          0.730              1.568              1.150
 Vibration    39          0.733              1.559              1.131
 Vibration    40          0.740              1.541              1.093
 Vibration    41          0.777              1.442              0.916
 Vibration    42          0.783              1.425              0.889
 Vibration    43          0.802              1.377              0.818
 Vibration    44          0.812              1.354              0.786
 Vibration    45          0.822              1.328              0.752
 Vibration    46          0.828              1.313              0.733
 Vibration    47          0.851              1.259              0.669
 Vibration    48          0.857              1.246              0.653
 Vibration    49          0.881              1.193              0.597
 Vibration    50          0.887              1.180              0.583
 Vibration    51          0.899              1.154              0.558
 Vibration    52          0.926              1.096              0.504
 Vibration    53          0.927              1.095              0.503
 Vibration    54          0.940              1.068              0.480
 Vibration    55          0.965              1.019              0.439
 Vibration    56          0.974              1.001              0.425

                           ! Non-Optimized Parameters !
 Normal termination of Gaussian 16 at Wed Jun  5 16:36:41 2019.
