 Gaussian 16, Revision A.03,
 Gaussian 16:  AS64L-G16RevA.03 25-Dec-2016

 ----------------------------------------------------------------------
 #p opt freq=noraman 6-31g(d) scrf=(solvent=tetrahydrofuran,pcm) pop=no
 ne blyp empiricaldispersion=gd3bj
 ----------------------------------------------------------------------

 -----
 title
 -----
 Symbolic Z-matrix:
 Charge =  0 Multiplicity = 1

 SCF Done:  E(RB-LYP) =  -2297.71805832     A.U. after   15 cycles
 SCF Done:  E(RB-LYP) =  -2297.71805819     A.U. after    6 cycles
 SCF Done:  E(RB-LYP) =  -2297.71805831     A.U. after    6 cycles
 SCF Done:  E(RB-LYP) =  -2297.71805832     A.U. after    7 cycles
 Optimization completed.
    -- Stationary point found.
 Normal termination of Gaussian 16 at Mon Jun 10 05:47:23 2019.

 -------------------------------------------------------------------
 #P Geom=AllCheck Guess=TCheck SCRF=Check GenChk RBLYP/6-31G(d) Freq
 -------------------------------------------------------------------

 Structure from the checkpoint file:  "/scratch/users/ekwan/clay_new-glu_gluC6-bisCF3-sm-blyp_d3bj-631gd-pcm_thf/Gau-46487.chk"
 -----
 title
 -----
 Charge =  0 Multiplicity = 1

                         Standard orientation:
 ---------------------------------------------------------------------
 Center     Atomic      Atomic             Coordinates (Angstroms)
 Number     Number       Type             X           Y           Z
 ---------------------------------------------------------------------
      1          6           0        3.414637    0.426122    0.577785
      2          6           0        3.330964   -0.518723   -0.639507
      3          6           0        1.859278   -0.875620   -0.975048
      4          6           0        1.008949    1.128692    0.072974
      5          6           0        2.433311    1.602610    0.422230
      6          1           0        1.767820   -1.422893   -1.920733
      7          1           0        3.722895    0.020907   -1.526157
      8          1           0        3.152233   -0.137943    1.491455
      9          1           0        0.594603    0.559618    0.924251
     10          1           0        2.790245    2.258906   -0.389114
     11          8           0        1.033277    0.253059   -1.102949
     12          8           0        1.409959   -1.765268    0.120074
     13          8           0        4.126913   -1.671294   -0.365995
     14          8           0        4.730915    0.990218    0.698008
     15          8           0        2.340516    2.332701    1.657986
     16          6           0        0.057216    2.298274   -0.224412
     17          1           0       -0.140388    2.806827    0.730810
     18          1           0       -0.894346    1.904441   -0.622949
     19          8           0        0.591506    3.303669   -1.095370
     20         16           0        0.090858   -2.747846   -0.198605
     21          8           0        0.072530   -3.698624    0.932347
     22          8           0        0.155080   -3.205923   -1.608617
     23          6           0       -1.299211   -1.603626   -0.025075
     24          6           0       -1.758993   -1.292984    1.260767
     25          6           0       -1.835401   -1.011817   -1.175917
     26          6           0       -2.797881   -0.355282    1.390517
     27          1           0       -1.319922   -1.768135    2.137793
     28          6           0       -2.871479   -0.078708   -1.023070
     29          1           0       -1.450413   -1.268154   -2.161232
     30          6           0       -3.354940    0.253311    0.254750
     31          1           0       -4.155509    0.984988    0.364033
     32          6           0        4.333237   -2.525786   -1.505440
     33          1           0        3.410685   -3.064229   -1.790994
     34          1           0        4.701718   -1.951230   -2.376943
     35          1           0        5.093809   -3.260091   -1.205008
     36          6           0        5.604830    0.267532    1.585137
     37          1           0        6.541356    0.843520    1.627844
     38          1           0        5.173006    0.202930    2.602669
     39          1           0        5.808577   -0.749830    1.213367
     40          6           0        3.009851    3.607472    1.620543
     41          1           0        2.847265    4.069856    2.605740
     42          1           0        4.091859    3.482999    1.443650
     43          1           0        2.579653    4.256968    0.835530
     44          6           0        0.569152    2.941110   -2.490539
     45          1           0        0.814071    3.856207   -3.050307
     46          1           0       -0.433958    2.584504   -2.789004
     47          1           0        1.307478    2.155816   -2.726166
     48          6           0       -3.357005   -0.043137    2.763451
     49          9           0       -2.406134   -0.177559    3.736058
     50          9           0       -4.386080   -0.888252    3.083701
     51          9           0       -3.846235    1.231813    2.829174
     52          6           0       -3.416528    0.651282   -2.231273
     53          9           0       -2.846308    1.900910   -2.347116
     54          9           0       -4.765290    0.844671   -2.138543
     55          9           0       -3.163504   -0.015257   -3.393492
 ---------------------------------------------------------------------

 SCF Done:  E(RB-LYP) =  -2297.71805832     A.U. after    1 cycles

 Isotropic polarizability for W=    0.000000      294.71 Bohr**3.
 End of Minotr F.D. properties file   721 does not exist.

                      1                      2                      3
                      A                      A                      A
 Frequencies --     14.6618                18.5467                19.0064
 Red. masses --      9.6480                 6.9762                14.3435
 Frc consts  --      0.0012                 0.0014                 0.0031
 IR Inten    --      0.0877                 0.1550                 0.0738

                      4                      5                      6
                      A                      A                      A
 Frequencies --     26.5319                34.5897                43.1132
 Red. masses --     12.1891                 5.2855                 5.6940
 Frc consts  --      0.0051                 0.0037                 0.0062
 IR Inten    --      0.0593                 0.0958                 0.8005

                      7                      8                      9
                      A                      A                      A
 Frequencies --     49.0610                56.6943                69.7796
 Red. masses --      4.0530                 3.7952                 3.8755
 Frc consts  --      0.0057                 0.0072                 0.0111
 IR Inten    --      0.8558                 1.1573                 2.4231

                     10                     11                     12
                      A                      A                      A
 Frequencies --     72.4789                79.5479                86.8636
 Red. masses --      3.1327                 3.0419                 3.3961
 Frc consts  --      0.0097                 0.0113                 0.0151
 IR Inten    --      2.6025                 5.3455                 2.5140

                     13                     14                     15
                      A                      A                      A
 Frequencies --     97.0720                98.4103               105.0826
 Red. masses --      8.3622                10.0937                 4.2684
 Frc consts  --      0.0464                 0.0576                 0.0278
 IR Inten    --      4.3326                 3.5531                 1.7787

                     16                     17                     18
                      A                      A                      A
 Frequencies --    112.6907               131.4462               146.6684
 Red. masses --      7.5367                 2.4137                 7.3152
 Frc consts  --      0.0564                 0.0246                 0.0927
 IR Inten    --      0.5341                 3.9027                 0.6043

                     19                     20                     21
                      A                      A                      A
 Frequencies --    154.8922               164.6390               168.4003
 Red. masses --      3.4702                 2.0246                 2.3230
 Frc consts  --      0.0491                 0.0323                 0.0388
 IR Inten    --      1.6253                 0.1004                 1.5087

                     22                     23                     24
                      A                      A                      A
 Frequencies --    179.4960               191.5511               194.9496
 Red. masses --      2.2761                 1.7807                 2.3371
 Frc consts  --      0.0432                 0.0385                 0.0523
 IR Inten    --      0.0923                 5.7211                 7.7731

                     25                     26                     27
                      A                      A                      A
 Frequencies --    210.4925               225.0104               228.4672
 Red. masses --      1.4907                 1.9499                 7.5201
 Frc consts  --      0.0389                 0.0582                 0.2313
 IR Inten    --      0.3114                 5.5558                 1.2513

                     28                     29                     30
                      A                      A                      A
 Frequencies --    238.5470               244.4280               257.6843
 Red. masses --      5.2594                 3.7010                 3.6379
 Frc consts  --      0.1763                 0.1303                 0.1423
 IR Inten    --      2.1502                 6.9956                10.1107

                     31                     32                     33
                      A                      A                      A
 Frequencies --    269.3270               276.8705               283.2446
 Red. masses --      9.0840                 5.9176                12.4459
 Frc consts  --      0.3882                 0.2673                 0.5883
 IR Inten    --      5.0432                15.7535                 1.8408

                     34                     35                     36
                      A                      A                      A
 Frequencies --    285.2270               303.6373               315.7485
 Red. masses --      5.2052                 5.5628                 4.1070
 Frc consts  --      0.2495                 0.3022                 0.2412
 IR Inten    --      7.9064                 0.1650                 3.0614

                     37                     38                     39
                      A                      A                      A
 Frequencies --    328.8875               337.7156               347.5505
 Red. masses --      7.4014                 7.0234                 8.4264
 Frc consts  --      0.4717                 0.4720                 0.5997
 IR Inten    --      1.6739                10.3778                16.9331

                     40                     41                     42
                      A                      A                      A
 Frequencies --    348.5310               393.8859               405.8833
 Red. masses --      4.5554                10.4866                 9.2292
 Frc consts  --      0.3260                 0.9586                 0.8958
 IR Inten    --      7.8350                16.1306                 9.2785

                     43                     44                     45
                      A                      A                      A
 Frequencies --    420.3603               433.3770               441.6057
 Red. masses --      2.2227                 6.0616                 9.1070
 Frc consts  --      0.2314                 0.6708                 1.0464
 IR Inten    --      8.7947                 9.1555                25.7283

                     46                     47                     48
                      A                      A                      A
 Frequencies --    453.9815               465.4028               473.1051
 Red. masses --      4.0828                 7.6714                11.8838
 Frc consts  --      0.4958                 0.9790                 1.5672
 IR Inten    --      5.1132                12.1283                 2.0314

                     49                     50                     51
                      A                      A                      A
 Frequencies --    496.6254               502.9890               518.0616
 Red. masses --      9.3740                 6.1726                 4.6602
 Frc consts  --      1.3622                 0.9201                 0.7369
 IR Inten    --     45.6847                 4.8679                44.4301

                     52                     53                     54
                      A                      A                      A
 Frequencies --    537.5291               545.4885               551.2909
 Red. masses --      9.6140                 7.6963                 4.7091
 Frc consts  --      1.6367                 1.3493                 0.8432
 IR Inten    --     71.8588                96.0911                60.5548

                     55                     56                     57
                      A                      A                      A
 Frequencies --    572.5191               584.9728               615.6399
 Red. masses --      6.6674                 8.0546                 5.5296
 Frc consts  --      1.2876                 1.6239                 1.2348
 IR Inten    --     21.5724                 2.2616                 9.4171

                     58                     59                     60
                      A                      A                      A
 Frequencies --    634.8712               644.5409               648.7778
 Red. masses --      8.7018                 7.9149                12.9767
 Frc consts  --      2.0665                 1.9373                 3.2182
 IR Inten    --    174.4206                 2.5912                45.3469

                     61                     62                     63
                      A                      A                      A
 Frequencies --    679.9948               683.6364               694.0204
 Red. masses --     12.4054                 2.8752                 5.4423
 Frc consts  --      3.3797                 0.7917                 1.5445
 IR Inten    --      0.1950                 9.4458               297.0761

                     64                     65                     66
                      A                      A                      A
 Frequencies --    724.7562               785.1179               797.8775
 Red. masses --      6.5189                 4.3447                 7.7152
 Frc consts  --      2.0175                 1.5779                 2.8938
 IR Inten    --    222.3992                15.9572                24.4273

                     67                     68                     69
                      A                      A                      A
 Frequencies --    821.4398               831.5281               872.0634
 Red. masses --     11.8047                 4.5739                 2.1901
 Frc consts  --      4.6930                 1.8633                 0.9813
 IR Inten    --     41.3100                36.5073                83.9949

                     70                     71                     72
                      A                      A                      A
 Frequencies --    875.0123               904.3661               911.4221
 Red. masses --      1.9522                 1.3802                 4.4336
 Frc consts  --      0.8807                 0.6651                 2.1699
 IR Inten    --     14.6622                 3.2102                10.6547

                     73                     74                     75
                      A                      A                      A
 Frequencies --    911.7073               923.5376               953.4751
 Red. masses --      1.4165                 4.5693                 4.5475
 Frc consts  --      0.6937                 2.2962                 2.4358
 IR Inten    --      2.7148                27.5263                51.3942

                     76                     77                     78
                      A                      A                      A
 Frequencies --    964.2638               989.3289               993.2378
 Red. masses --      4.6268                 6.1578                 3.8096
 Frc consts  --      2.5347                 3.5510                 2.2143
 IR Inten    --     31.3343                 6.7445               130.6198

                     79                     80                     81
                      A                      A                      A
 Frequencies --   1033.1211              1054.8883              1061.5229
 Red. masses --      3.2587                11.4429                 6.7757
 Frc consts  --      2.0492                 7.5024                 4.4984
 IR Inten    --     27.0551                47.8127               333.5239

                     82                     83                     84
                      A                      A                      A
 Frequencies --   1065.4912              1066.8602              1071.2258
 Red. masses --      7.5164                 4.8703                 5.2230
 Frc consts  --      5.0276                 3.2660                 3.5313
 IR Inten    --    259.6182               219.9452               227.2521

                     85                     86                     87
                      A                      A                      A
 Frequencies --   1077.6897              1082.0103              1090.4267
 Red. masses --      7.2700                 4.4315                 4.0946
 Frc consts  --      4.9747                 3.0568                 2.8685
 IR Inten    --    207.6223                45.8871               198.2767

                     88                     89                     90
                      A                      A                      A
 Frequencies --   1092.5709              1093.8104              1097.3465
 Red. masses --      4.5295                 3.3985                 4.6283
 Frc consts  --      3.1856                 2.3956                 3.2837
 IR Inten    --    294.4163               115.0543               329.5080

                     91                     92                     93
                      A                      A                      A
 Frequencies --   1101.1055              1114.8663              1127.8161
 Red. masses --      3.6558                 4.3428                 2.8215
 Frc consts  --      2.6115                 3.1803                 2.1145
 IR Inten    --     31.6512               122.3598                57.1617

                     94                     95                     96
                      A                      A                      A
 Frequencies --   1135.2430              1144.9283              1148.3231
 Red. masses --      4.6548                 3.2753                 1.2682
 Frc consts  --      3.5345                 2.5296                 0.9853
 IR Inten    --    158.3155               143.6672                 0.5584

                     97                     98                     99
                      A                      A                      A
 Frequencies --   1152.3460              1153.2035              1158.7411
 Red. masses --      1.2555                 1.2805                 1.2642
 Frc consts  --      0.9823                 1.0034                 1.0001
 IR Inten    --      0.2635                 4.2338                 0.7858

                    100                    101                    102
                      A                      A                      A
 Frequencies --   1177.6884              1183.3927              1187.9532
 Red. masses --      1.3148                 1.3743                 1.4384
 Frc consts  --      1.0744                 1.1340                 1.1960
 IR Inten    --     13.3366                17.0586                 4.9494

                    103                    104                    105
                      A                      A                      A
 Frequencies --   1199.0792              1228.2760              1228.8993
 Red. masses --      1.5581                 1.7509                 2.9260
 Frc consts  --      1.3199                 1.5563                 2.6035
 IR Inten    --      9.4337               111.6566               651.7959

                    106                    107                    108
                      A                      A                      A
 Frequencies --   1263.9211              1266.9671              1282.2298
 Red. masses --      8.5315                 1.4297                 1.3396
 Frc consts  --      8.0300                 1.3521                 1.2977
 IR Inten    --    164.4737                 5.2495                24.8136

                    109                    110                    111
                      A                      A                      A
 Frequencies --   1291.7573              1304.8579              1312.9169
 Red. masses --      1.3318                 1.1701                 5.8771
 Frc consts  --      1.3093                 1.1738                 5.9688
 IR Inten    --      1.4278                11.9460               179.5744

                    112                    113                    114
                      A                      A                      A
 Frequencies --   1327.6627              1332.5389              1344.4952
 Red. masses --      1.2250                 1.1858                 1.2566
 Frc consts  --      1.2722                 1.2406                 1.3383
 IR Inten    --     13.0191                17.5095                 4.7674

                    115                    116                    117
                      A                      A                      A
 Frequencies --   1350.0628              1351.8934              1370.7628
 Red. masses --      3.1751                 1.8004                 1.2850
 Frc consts  --      3.4097                 1.9386                 1.4226
 IR Inten    --      2.5869                 9.8536                 2.5381

                    118                    119                    120
                      A                      A                      A
 Frequencies --   1378.8624              1391.3558              1398.4472
 Red. masses --      1.2861                 1.2658                 1.2649
 Frc consts  --      1.4407                 1.4438                 1.4575
 IR Inten    --     26.8118                10.3589                12.8546

                    121                    122                    123
                      A                      A                      A
 Frequencies --   1435.9196              1449.2042              1450.3054
 Red. masses --      3.4146                 1.3254                 2.3295
 Frc consts  --      4.1481                 1.6400                 2.8870
 IR Inten    --      7.2208                 2.9930                 3.4408

                    124                    125                    126
                      A                      A                      A
 Frequencies --   1452.3006              1453.7716              1456.3936
 Red. masses --      1.1542                 1.1483                 1.1269
 Frc consts  --      1.4343                 1.4299                 1.4083
 IR Inten    --      2.6412                 2.2042                 4.3579

                    127                    128                    129
                      A                      A                      A
 Frequencies --   1464.9408              1468.7560              1470.1559
 Red. masses --      1.0539                 1.0746                 1.0642
 Frc consts  --      1.3325                 1.3659                 1.3552
 IR Inten    --      1.1347                 6.7278                 2.7280

                    130                    131                    132
                      A                      A                      A
 Frequencies --   1472.6839              1478.5856              1493.5237
 Red. masses --      1.0948                 1.0810                 1.0501
 Frc consts  --      1.3989                 1.3924                 1.3801
 IR Inten    --      0.6876                 4.9293                10.4403

                    133                    134                    135
                      A                      A                      A
 Frequencies --   1498.1581              1498.3235              1501.1945
 Red. masses --      1.0512                 1.0507                 1.0575
 Frc consts  --      1.3901                 1.3898                 1.4041
 IR Inten    --      4.7517                 9.6679                 8.4268

                    136                    137                    138
                      A                      A                      A
 Frequencies --   1583.0938              1606.3377              2913.9990
 Red. masses --      6.0004                 5.7085                 1.0813
 Frc consts  --      8.8602                 8.6786                 5.4096
 IR Inten    --      7.1863                11.3400                39.3536

                    139                    140                    141
                      A                      A                      A
 Frequencies --   2934.0050              2936.4939              2943.9509
 Red. masses --      1.0367                 1.0429                 1.0351
 Frc consts  --      5.2582                 5.2987                 5.2854
 IR Inten    --     96.0198                64.8086                76.8136

                    142                    143                    144
                      A                      A                      A
 Frequencies --   2953.3777              2961.0069              2967.9685
 Red. masses --      1.0318                 1.0829                 1.0802
 Frc consts  --      5.3027                 5.5940                 5.6063
 IR Inten    --     58.5662                25.8681                11.1205

                    145                    146                    147
                      A                      A                      A
 Frequencies --   2985.5126              2985.8875              2991.6419
 Red. masses --      1.1048                 1.0635                 1.0840
 Frc consts  --      5.8017                 5.5866                 5.7158
 IR Inten    --     66.2600                47.2261                63.5438

                    148                    149                    150
                      A                      A                      A
 Frequencies --   3008.2173              3011.4657              3013.8013
 Red. masses --      1.1019                 1.1040                 1.0904
 Frc consts  --      5.8749                 5.8989                 5.8356
 IR Inten    --     53.5716                51.1580                56.6577

                    151                    152                    153
                      A                      A                      A
 Frequencies --   3049.4407              3056.0446              3056.5761
 Red. masses --      1.1014                 1.1029                 1.1022
 Frc consts  --      6.0342                 6.0687                 6.0671
 IR Inten    --     20.6105                51.9891                45.3521

                    154                    155                    156
                      A                      A                      A
 Frequencies --   3059.0077              3066.8826              3070.9132
 Red. masses --      1.1043                 1.0962                 1.0890
 Frc consts  --      6.0881                 6.0747                 6.0508
 IR Inten    --     41.4157                39.8533                11.5398

                    157                    158                    159
                      A                      A                      A
 Frequencies --   3162.4887              3163.3698              3178.6816
 Red. masses --      1.0909                 1.0910                 1.0909
 Frc consts  --      6.4284                 6.4322                 6.4944
 IR Inten    --      0.1232                 3.6636                 4.4009

 - Thermochemistry -
 -------------------
 Temperature   298.150 Kelvin.  Pressure   1.00000 Atm.
 Atom     1 has atomic number  6 and mass  12.00000

 Molecular mass:   512.09396 amu.
 Principal axes and moments of inertia in atomic units:
                           1         2         3
     Eigenvalues --  ******************************
           X            0.99995   0.00714   0.00736
           Y           -0.00801   0.99191   0.12669
           Z           -0.00640  -0.12674   0.99192
 This molecule is an asymmetric top.
 Rotational symmetry number  1.
 Warning -- assumption of classical behavior for rotation
           may cause significant error
 Rotational temperatures (Kelvin)      0.00709     0.00404     0.00394
 Rotational constants (GHZ):           0.14767     0.08413     0.08220
 Zero-point vibrational energy    1043605.3 (Joules/Mol)
                                  249.42764 (Kcal/Mol)
 Warning -- explicit consideration of  57 degrees of freedom as
           vibrations may cause significant error
 Vibrational temperatures:     21.10    26.68    27.35    38.17    49.77
          (Kelvin)             62.03    70.59    81.57   100.40   104.28
                              114.45   124.98   139.66   141.59   151.19
                              162.14   189.12   211.02   222.86   236.88
                              242.29   258.25   275.60   280.49   302.85
                              323.74   328.71   343.22   351.68   370.75
                              387.50   398.35   407.53   410.38   436.87
                              454.29   473.20   485.90   500.05   501.46
                              566.71   583.98   604.80   623.53   635.37
                              653.18   669.61   680.69   714.53   723.69
                              745.38   773.38   784.84   793.18   823.73
                              841.65   885.77   913.44   927.35   933.45
                              978.36   983.60   998.54  1042.76  1129.61
                             1147.97  1181.87  1196.38  1254.70  1258.95
                             1301.18  1311.33  1311.74  1328.76  1371.84
                             1387.36  1423.42  1429.05  1486.43  1517.75
                             1527.29  1533.00  1534.97  1541.26  1550.56
                             1556.77  1568.88  1571.97  1573.75  1578.84
                             1584.25  1604.04  1622.68  1633.36  1647.30
                             1652.18  1657.97  1659.20  1667.17  1694.43
                             1702.64  1709.20  1725.21  1767.22  1768.11
                             1818.50  1822.88  1844.84  1858.55  1877.40
                             1888.99  1910.21  1917.23  1934.43  1942.44
                             1945.07  1972.22  1983.88  2001.85  2012.05
                             2065.97  2085.08  2086.67  2089.54  2091.65
                             2095.43  2107.72  2113.21  2115.23  2118.86
                             2127.35  2148.85  2155.52  2155.75  2159.88
                             2277.72  2311.16  4192.59  4221.38  4224.96
                             4235.69  4249.25  4260.23  4270.24  4295.49
                             4296.03  4304.31  4328.15  4332.83  4336.19
                             4387.47  4396.97  4397.73  4401.23  4412.56
                             4418.36  4550.12  4551.38  4573.41

 Zero-point correction=                           0.397488 (Hartree/Particle)
 Thermal correction to Energy=                    0.431886
 Thermal correction to Enthalpy=                  0.432830
 Thermal correction to Gibbs Free Energy=         0.327787
 Sum of electronic and zero-point Energies=          -2297.320570
 Sum of electronic and thermal Energies=             -2297.286173
 Sum of electronic and thermal Enthalpies=           -2297.285229
 Sum of electronic and thermal Free Energies=        -2297.390272

                     E (Thermal)             CV                S
                      KCal/Mol        Cal/Mol-Kelvin    Cal/Mol-Kelvin
 Total                  271.012            125.094            221.082
 Electronic               0.000              0.000              0.000
 Translational            0.889              2.981             44.587
 Rotational               0.889              2.981             36.996
 Vibrational            269.235            119.133            139.499
 Vibration     1          0.593              1.986              7.251
 Vibration     2          0.593              1.986              6.784
 Vibration     3          0.593              1.986              6.735
 Vibration     4          0.593              1.984              6.073
 Vibration     5          0.594              1.983              5.547
 Vibration     6          0.595              1.980              5.111
 Vibration     7          0.595              1.978              4.855
 Vibration     8          0.596              1.975              4.569
 Vibration     9          0.598              1.969              4.160
 Vibration    10          0.599              1.967              4.085
 Vibration    11          0.600              1.963              3.902
 Vibration    12          0.601              1.958              3.729
 Vibration    13          0.603              1.951              3.512
 Vibration    14          0.604              1.950              3.486
 Vibration    15          0.605              1.945              3.358
 Vibration    16          0.607              1.939              3.222
 Vibration    17          0.612              1.922              2.925
 Vibration    18          0.617              1.906              2.715
 Vibration    19          0.620              1.897              2.611
 Vibration    20          0.623              1.886              2.496
 Vibration    21          0.625              1.881              2.453
 Vibration    22          0.629              1.867              2.334
 Vibration    23          0.634              1.852              2.213
 Vibration    24          0.636              1.847              2.180
 Vibration    25          0.643              1.825              2.039
 Vibration    26          0.650              1.803              1.918
 Vibration    27          0.651              1.798              1.891
 Vibration    28          0.657              1.782              1.814
 Vibration    29          0.660              1.772              1.770
 Vibration    30          0.667              1.750              1.677
 Vibration    31          0.674              1.730              1.601
 Vibration    32          0.678              1.716              1.553
 Vibration    33          0.682              1.705              1.514
 Vibration    34          0.683              1.701              1.502
 Vibration    35          0.695              1.667              1.397
 Vibration    36          0.703              1.644              1.332
 Vibration    37          0.712              1.618              1.266
 Vibration    38          0.718              1.600              1.223
 Vibration    39          0.725              1.580              1.177
 Vibration    40          0.726              1.578              1.173
 Vibration    41          0.761              1.483              0.985
 Vibration    42          0.771              1.457              0.941
 Vibration    43          0.783              1.426              0.891
 Vibration    44          0.794              1.398              0.848
 Vibration    45          0.801              1.379              0.822
 Vibration    46          0.812              1.352              0.784
 Vibration    47          0.823              1.327              0.751
 Vibration    48          0.830              1.310              0.729
 Vibration    49          0.852              1.258              0.667
 Vibration    50          0.858              1.243              0.651
 Vibration    51          0.873              1.210              0.614
 Vibration    52          0.893              1.167              0.571
 Vibration    53          0.901              1.150              0.554
 Vibration    54          0.907              1.137              0.542
 Vibration    55          0.929              1.091              0.499
 Vibration    56          0.942              1.064              0.476
 Vibration    57          0.975              0.999              0.424

                           ! Non-Optimized Parameters !
 Normal termination of Gaussian 16 at Mon Jun 10 06:06:30 2019.
