 Gaussian 16, Revision A.03,
 Gaussian 16:  AS64L-G16RevA.03 25-Dec-2016

 ----------------------------------------------------------------------
 #p opt freq=noraman pop=none 6-31g* scrf=(pcm,solvent=tetrahydrofuran)
  m06l empiricaldispersion=gd3
 ----------------------------------------------------------------------

 -----
 title
 -----
 Symbolic Z-matrix:
 Charge =  0 Multiplicity = 1

 SCF Done:  E(RM06L) =  -2297.86292660     A.U. after   14 cycles
 SCF Done:  E(RM06L) =  -2297.86292827     A.U. after    6 cycles
 SCF Done:  E(RM06L) =  -2297.86292803     A.U. after    6 cycles
 SCF Done:  E(RM06L) =  -2297.86292688     A.U. after    6 cycles
 Optimization completed.
    -- Stationary point found.
 Normal termination of Gaussian 16 at Wed Jun  5 18:04:22 2019.

 -------------------------------------------------------------------
 #P Geom=AllCheck Guess=TCheck SCRF=Check GenChk RM06L/6-31G(d) Freq
 -------------------------------------------------------------------

 Structure from the checkpoint file:  "/scratch/users/ekwan/clay_new-glu_gluC6-bisCF3-sm-m06l_d3-631gd-pcm_thf/Gau-31036.chk"
 -----
 title
 -----
 Charge =  0 Multiplicity = 1

                         Standard orientation:
 ---------------------------------------------------------------------
 Center     Atomic      Atomic             Coordinates (Angstroms)
 Number     Number       Type             X           Y           Z
 ---------------------------------------------------------------------
      1          6           0        3.401511    0.397379    0.512779
      2          6           0        3.305438   -0.563271   -0.662874
      3          6           0        1.846134   -0.904144   -0.975995
      4          6           0        1.044317    1.112244    0.008460
      5          6           0        2.459309    1.575918    0.329365
      6          1           0        1.740564   -1.473993   -1.904948
      7          1           0        3.694926   -0.053891   -1.566151
      8          1           0        3.114701   -0.139499    1.432453
      9          1           0        0.640062    0.568177    0.880039
     10          1           0        2.823125    2.199541   -0.503815
     11          8           0        1.050720    0.221311   -1.128238
     12          8           0        1.387625   -1.740832    0.126191
     13          8           0        4.086230   -1.691942   -0.363564
     14          8           0        4.722747    0.896145    0.628968
     15          8           0        2.393164    2.336752    1.522951
     16          6           0        0.106224    2.264283   -0.299440
     17          1           0       -0.091613    2.792526    0.639491
     18          1           0       -0.847390    1.860634   -0.679942
     19          8           0        0.620456    3.232329   -1.186169
     20         16           0        0.082766   -2.686067   -0.143869
     21          8           0        0.065257   -3.588344    0.990745
     22          8           0        0.125860   -3.163062   -1.518007
     23          6           0       -1.275198   -1.547452    0.014546
     24          6           0       -1.722386   -1.211710    1.286789
     25          6           0       -1.836579   -0.995219   -1.132837
     26          6           0       -2.763411   -0.293008    1.408112
     27          1           0       -1.266537   -1.658663    2.167212
     28          6           0       -2.877012   -0.084663   -0.990614
     29          1           0       -1.462730   -1.271187   -2.114930
     30          6           0       -3.342142    0.269755    0.275372
     31          1           0       -4.152295    0.987655    0.376606
     32          6           0        4.215623   -2.592412   -1.445911
     33          1           0        3.280830   -3.139797   -1.644200
     34          1           0        4.523889   -2.072003   -2.366394
     35          1           0        4.987350   -3.313106   -1.166231
     36          6           0        5.432021    0.360333    1.727242
     37          1           0        6.427040    0.813847    1.711229
     38          1           0        4.940633    0.613234    2.680570
     39          1           0        5.530985   -0.731633    1.654289
     40          6           0        3.105311    3.557704    1.452328
     41          1           0        2.964995    4.058629    2.414250
     42          1           0        4.177599    3.389201    1.282789
     43          1           0        2.710573    4.201324    0.650932
     44          6           0        0.640982    2.816720   -2.539085
     45          1           0        0.771018    3.718060   -3.144892
     46          1           0       -0.305374    2.326316   -2.817783
     47          1           0        1.464214    2.119407   -2.749822
     48          6           0       -3.292613    0.045140    2.771808
     49          9           0       -2.314935    0.035664    3.696785
     50          9           0       -4.222836   -0.846107    3.170665
     51          9           0       -3.870361    1.259536    2.795675
     52          6           0       -3.467350    0.590248   -2.193610
     53          9           0       -3.012397    1.860167   -2.305260
     54          9           0       -4.808202    0.666753   -2.110253
     55          9           0       -3.158866   -0.045307   -3.335442
 ---------------------------------------------------------------------

 SCF Done:  E(RM06L) =  -2297.86292688     A.U. after    1 cycles

 Isotropic polarizability for W=    0.000000      280.54 Bohr**3.
 End of Minotr F.D. properties file   721 does not exist.

                      1                      2                      3
                      A                      A                      A
 Frequencies --     15.0870                17.8878                31.0333
 Red. masses --      9.0193                 6.0623                 2.9506
 Frc consts  --      0.0012                 0.0011                 0.0017
 IR Inten    --      0.1457                 0.4159                 4.1827

                      4                      5                      6
                      A                      A                      A
 Frequencies --     32.1033                38.2126                38.3321
 Red. masses --      8.7057                 6.7682                11.7632
 Frc consts  --      0.0053                 0.0058                 0.0102
 IR Inten    --      0.2564                 0.4353                 0.0137

                      7                      8                      9
                      A                      A                      A
 Frequencies --     44.0977                53.1394                66.0756
 Red. masses --      5.7654                 4.2027                 4.1882
 Frc consts  --      0.0066                 0.0070                 0.0108
 IR Inten    --      0.2650                 0.8337                 0.8224

                     10                     11                     12
                      A                      A                      A
 Frequencies --     71.0687                75.9871                87.6814
 Red. masses --      3.9986                 2.7026                 3.9926
 Frc consts  --      0.0119                 0.0092                 0.0181
 IR Inten    --      2.4489                 5.0032                 1.1675

                     13                     14                     15
                      A                      A                      A
 Frequencies --     99.6322               100.7993               110.6520
 Red. masses --      7.9083                11.2401                 4.6579
 Frc consts  --      0.0463                 0.0673                 0.0336
 IR Inten    --      3.5639                 3.7021                 0.9971

                     16                     17                     18
                      A                      A                      A
 Frequencies --    115.9498               132.3732               150.7915
 Red. masses --      6.3424                 2.3054                 7.3008
 Frc consts  --      0.0502                 0.0238                 0.0978
 IR Inten    --      0.5161                 4.1011                 0.3247

                     19                     20                     21
                      A                      A                      A
 Frequencies --    161.9405               162.6383               172.6051
 Red. masses --      1.5258                 1.3162                 5.0021
 Frc consts  --      0.0236                 0.0205                 0.0878
 IR Inten    --      0.3003                 0.7712                 2.1939

                     22                     23                     24
                      A                      A                      A
 Frequencies --    178.0408               196.8521               202.7949
 Red. masses --      2.8768                 2.6810                 4.1297
 Frc consts  --      0.0537                 0.0612                 0.1001
 IR Inten    --      0.8086                 1.9946                13.5168

                     25                     26                     27
                      A                      A                      A
 Frequencies --    219.8446               236.7965               239.3258
 Red. masses --      1.6459                 7.9532                 1.7253
 Frc consts  --      0.0469                 0.2627                 0.0582
 IR Inten    --      0.7213                 0.7321                 2.0290

                     28                     29                     30
                      A                      A                      A
 Frequencies --    245.8542               254.5363               277.2150
 Red. masses --      3.2302                 8.3427                 2.8045
 Frc consts  --      0.1150                 0.3185                 0.1270
 IR Inten    --      5.3932                 4.4550                10.4044

                     31                     32                     33
                      A                      A                      A
 Frequencies --    282.3301               286.5184               291.2486
 Red. masses --     10.2482                 3.6699                 7.1293
 Frc consts  --      0.4813                 0.1775                 0.3563
 IR Inten    --      6.2006                 7.1059                14.0371

                     34                     35                     36
                      A                      A                      A
 Frequencies --    295.8157               309.8611               329.7086
 Red. masses --     11.8845                 5.4690                 3.9798
 Frc consts  --      0.6127                 0.3094                 0.2549
 IR Inten    --      2.1106                 0.4482                 2.8411

                     37                     38                     39
                      A                      A                      A
 Frequencies --    343.0166               355.1718               362.7209
 Red. masses --      8.0771                 7.3509                 4.1322
 Frc consts  --      0.5599                 0.5463                 0.3203
 IR Inten    --      0.8879                 7.8341                 3.7993

                     40                     41                     42
                      A                      A                      A
 Frequencies --    368.4103               411.5000               422.6297
 Red. masses --      8.3205                10.1728                 8.3434
 Frc consts  --      0.6654                 1.0149                 0.8780
 IR Inten    --     18.1081                15.4920                 9.2872

                     43                     44                     45
                      A                      A                      A
 Frequencies --    430.1486               455.1063               465.9856
 Red. masses --      2.1802                 5.9396                 9.0969
 Frc consts  --      0.2377                 0.7248                 1.1638
 IR Inten    --      8.2775                 7.2063                22.9242

                     46                     47                     48
                      A                      A                      A
 Frequencies --    478.5966               490.5284               493.8567
 Red. masses --      4.1706                 7.3139                11.7664
 Frc consts  --      0.5628                 1.0369                 1.6908
 IR Inten    --      7.4477                11.5288                 2.2052

                     49                     50                     51
                      A                      A                      A
 Frequencies --    521.2465               528.0864               546.4525
 Red. masses --      6.6160                 6.3751                 4.6388
 Frc consts  --      1.0591                 1.0475                 0.8161
 IR Inten    --     61.2490                11.9443                23.7826

                     52                     53                     54
                      A                      A                      A
 Frequencies --    564.9835               569.4550               578.4527
 Red. masses --     12.4950                 3.8371                 9.4134
 Frc consts  --      2.3499                 0.7331                 1.8558
 IR Inten    --     15.4820                41.7660               231.8856

                     55                     56                     57
                      A                      A                      A
 Frequencies --    603.3356               612.9167               647.2354
 Red. masses --      6.7777                 7.9718                 5.6171
 Frc consts  --      1.4536                 1.7644                 1.3864
 IR Inten    --     23.4091                 2.5881                12.1244

                     58                     59                     60
                      A                      A                      A
 Frequencies --    672.5564               676.5768               678.7031
 Red. masses --      7.7142                13.0050                 6.8589
 Frc consts  --      2.0559                 3.5075                 1.8615
 IR Inten    --      2.4316                59.8088                90.5030

                     61                     62                     63
                      A                      A                      A
 Frequencies --    708.2683               715.9551               739.3594
 Red. masses --      2.4811                12.2993                 4.7106
 Frc consts  --      0.7333                 3.7145                 1.5172
 IR Inten    --     21.8129                 0.5152               109.7543

                     64                     65                     66
                      A                      A                      A
 Frequencies --    791.4430               832.6081               845.9173
 Red. masses --      9.1059                 3.8520                 8.1492
 Frc consts  --      3.3606                 1.5733                 3.4357
 IR Inten    --    530.5701                30.2620                41.2616

                     67                     68                     69
                      A                      A                      A
 Frequencies --    861.5415               883.4429               895.2101
 Red. masses --     11.7998                 3.4679                 1.6863
 Frc consts  --      5.1603                 1.5947                 0.7962
 IR Inten    --     35.7964                36.3448                66.9489

                     70                     71                     72
                      A                      A                      A
 Frequencies --    923.9923               928.5945               936.3536
 Red. masses --      1.4910                 2.6643                 1.3818
 Frc consts  --      0.7500                 1.3536                 0.7138
 IR Inten    --      8.1670                33.7463                11.0410

                     73                     74                     75
                      A                      A                      A
 Frequencies --    972.1351               986.8062              1016.6324
 Red. masses --      4.9401                 3.9750                 4.2619
 Frc consts  --      2.7507                 2.2806                 2.5953
 IR Inten    --     20.0543                23.7486                33.2006

                     76                     77                     78
                      A                      A                      A
 Frequencies --   1019.8441              1029.4411              1051.1364
 Red. masses --      5.2860                 3.9432                 3.5656
 Frc consts  --      3.2393                 2.4621                 2.3212
 IR Inten    --     15.9547                 8.5838               126.1393

                     79                     80                     81
                      A                      A                      A
 Frequencies --   1088.5455              1116.1088              1124.3984
 Red. masses --      2.8439                 7.2106                 3.2334
 Frc consts  --      1.9855                 5.2922                 2.4086
 IR Inten    --     19.3929                72.2690               147.9722

                     82                     83                     84
                      A                      A                      A
 Frequencies --   1130.1396              1136.6404              1138.1468
 Red. masses --      2.1329                 2.2783                 3.9962
 Frc consts  --      1.6050                 1.7342                 3.0500
 IR Inten    --    117.9007                73.7342               326.6025

                     85                     86                     87
                      A                      A                      A
 Frequencies --   1141.0508              1148.7652              1153.5484
 Red. masses --      3.5721                 7.8629                 3.7755
 Frc consts  --      2.7402                 6.1136                 2.9600
 IR Inten    --    209.0478               442.9563                76.9317

                     88                     89                     90
                      A                      A                      A
 Frequencies --   1160.1764              1160.6860              1167.6624
 Red. masses --      5.2675                 4.0873                 2.4478
 Frc consts  --      4.1774                 3.2443                 1.9663
 IR Inten    --    167.3590               315.5139                25.0603

                     91                     92                     93
                      A                      A                      A
 Frequencies --   1176.2332              1178.9746              1180.7189
 Red. masses --      1.3474                 1.3136                 1.4327
 Frc consts  --      1.0983                 1.0758                 1.1768
 IR Inten    --      7.3499                18.3794                40.1444

                     94                     95                     96
                      A                      A                      A
 Frequencies --   1181.2663              1185.4970              1188.8113
 Red. masses --      1.5442                 4.3621                 2.3819
 Frc consts  --      1.2696                 3.6120                 1.9834
 IR Inten    --     29.2392               326.8797               121.1792

                     97                     98                     99
                      A                      A                      A
 Frequencies --   1196.3179              1197.0003              1202.4473
 Red. masses --      3.8117                 5.4484                 5.3962
 Frc consts  --      3.2141                 4.5995                 4.5970
 IR Inten    --    409.4760               126.9308               148.8692

                    100                    101                    102
                      A                      A                      A
 Frequencies --   1209.8515              1216.6193              1225.6298
 Red. masses --      1.4306                 1.5295                 1.8149
 Frc consts  --      1.2338                 1.3338                 1.6063
 IR Inten    --     17.5773                28.5803                31.8253

                    103                    104                    105
                      A                      A                      A
 Frequencies --   1233.3350              1265.2584              1288.3551
 Red. masses --      1.6863                 1.8520                 2.3703
 Frc consts  --      1.5113                 1.7468                 2.3181
 IR Inten    --     16.4477                 6.3142               617.6737

                    106                    107                    108
                      A                      A                      A
 Frequencies --   1302.9379              1307.2824              1332.3791
 Red. masses --      1.4585                 1.5053                 1.2111
 Frc consts  --      1.4589                 1.5157                 1.2667
 IR Inten    --      3.3663               193.9637                 8.9183

                    109                    110                    111
                      A                      A                      A
 Frequencies --   1341.2536              1360.8205              1363.3376
 Red. masses --      1.4157                 1.2213                 1.2351
 Frc consts  --      1.5005                 1.3325                 1.3526
 IR Inten    --      7.4233                35.9406                14.2055

                    112                    113                    114
                      A                      A                      A
 Frequencies --   1376.6022              1385.4459              1392.6652
 Red. masses --      1.3478                 5.4500                 1.8469
 Frc consts  --      1.5049                 6.1634                 2.1105
 IR Inten    --     42.3001               150.0104                43.6734

                    115                    116                    117
                      A                      A                      A
 Frequencies --   1400.7269              1404.2297              1417.0772
 Red. masses --      2.6884                 1.5993                 5.4723
 Frc consts  --      3.1078                 1.8580                 6.4745
 IR Inten    --    176.9352                15.1858                17.8219

                    118                    119                    120
                      A                      A                      A
 Frequencies --   1420.9126              1426.0718              1435.1670
 Red. masses --      1.4185                 1.5612                 1.4280
 Frc consts  --      1.6874                 1.8706                 1.7330
 IR Inten    --     25.1831                27.6593                 7.8423

                    121                    122                    123
                      A                      A                      A
 Frequencies --   1463.8160              1472.4605              1473.7323
 Red. masses --      1.0787                 1.1110                 1.1202
 Frc consts  --      1.3618                 1.4192                 1.4335
 IR Inten    --      2.4474                11.8674                 4.0657

                    124                    125                    126
                      A                      A                      A
 Frequencies --   1474.6225              1475.9205              1482.9327
 Red. masses --      1.1549                 1.1450                 1.0501
 Frc consts  --      1.4797                 1.4696                 1.3606
 IR Inten    --      3.4537                 4.0646                 0.8851

                    127                    128                    129
                      A                      A                      A
 Frequencies --   1483.7682              1490.0956              1495.0376
 Red. masses --      1.0631                 4.1211                 1.0926
 Frc consts  --      1.3790                 5.3913                 1.4389
 IR Inten    --      4.4157                 0.9757                 5.6861

                    130                    131                    132
                      A                      A                      A
 Frequencies --   1499.4474              1504.5399              1507.9351
 Red. masses --      1.1210                 4.2776                 1.0523
 Frc consts  --      1.4850                 5.7051                 1.4098
 IR Inten    --      0.9520                 0.2273                 9.8512

                    133                    134                    135
                      A                      A                      A
 Frequencies --   1509.6786              1510.8937              1512.4456
 Red. masses --      1.0512                 1.0485                 1.0466
 Frc consts  --      1.4116                 1.4102                 1.4106
 IR Inten    --     16.0246                 5.6058                 7.6396

                    136                    137                    138
                      A                      A                      A
 Frequencies --   1658.4109              1682.3834              2970.2225
 Red. masses --      6.6777                 6.1631                 1.0820
 Frc consts  --     10.8208                10.2778                 5.6242
 IR Inten    --     15.4605                18.8149                59.4716

                    139                    140                    141
                      A                      A                      A
 Frequencies --   2994.5661              2996.5646              3002.2908
 Red. masses --      1.0345                 1.0353                 1.0339
 Frc consts  --      5.4655                 5.4773                 5.4910
 IR Inten    --    113.3817                73.4946                76.0000

                    142                    143                    144
                      A                      A                      A
 Frequencies --   3004.6676              3012.9667              3019.4733
 Red. masses --      1.0335                 1.0768                 1.0814
 Frc consts  --      5.4975                 5.7594                 5.8089
 IR Inten    --     90.0885                16.5452                18.8677

                    145                    146                    147
                      A                      A                      A
 Frequencies --   3021.9402              3034.0950              3069.3437
 Red. masses --      1.0726                 1.0848                 1.1059
 Frc consts  --      5.7710                 5.8839                 6.1386
 IR Inten    --     50.2963                91.5255                75.4741

                    148                    149                    150
                      A                      A                      A
 Frequencies --   3082.1688              3083.7993              3090.7527
 Red. masses --      1.1032                 1.1044                 1.1046
 Frc consts  --      6.1746                 6.1881                 6.2171
 IR Inten    --     66.5524                59.9963                55.2208

                    151                    152                    153
                      A                      A                      A
 Frequencies --   3111.6202              3123.9109              3143.2698
 Red. masses --      1.0876                 1.0980                 1.1031
 Frc consts  --      6.2045                 6.3133                 6.4215
 IR Inten    --     18.7945                21.9872                55.0518

                    154                    155                    156
                      A                      A                      A
 Frequencies --   3147.0731              3148.5794              3157.1063
 Red. masses --      1.1026                 1.1033                 1.1005
 Frc consts  --      6.4341                 6.4440                 6.4629
 IR Inten    --     46.7797                41.9264                36.7088

                    157                    158                    159
                      A                      A                      A
 Frequencies --   3212.3115              3215.9158              3224.8093
 Red. masses --      1.0921                 1.0917                 1.0918
 Frc consts  --      6.6398                 6.6520                 6.6896
 IR Inten    --      2.9324                 0.1350                 4.1856

 - Thermochemistry -
 -------------------
 Temperature   298.150 Kelvin.  Pressure   1.00000 Atm.
 Atom     1 has atomic number  6 and mass  12.00000

 Molecular mass:   512.09396 amu.
 Principal axes and moments of inertia in atomic units:
                           1         2         3
     Eigenvalues --  ******************************
           X            0.99994   0.00795   0.00804
           Y           -0.00912   0.98733   0.15840
           Z           -0.00668  -0.15847   0.98734
 This molecule is an asymmetric top.
 Rotational symmetry number  1.
 Warning -- assumption of classical behavior for rotation
           may cause significant error
 Rotational temperatures (Kelvin)      0.00728     0.00409     0.00402
 Rotational constants (GHZ):           0.15159     0.08517     0.08380
 Zero-point vibrational energy    1077032.9 (Joules/Mol)
                                  257.41705 (Kcal/Mol)
 Warning -- explicit consideration of  56 degrees of freedom as
           vibrations may cause significant error
 Vibrational temperatures:     21.71    25.74    44.65    46.19    54.98
          (Kelvin)             55.15    63.45    76.46    95.07   102.25
                              109.33   126.15   143.35   145.03   159.20
                              166.83   190.46   216.96   233.00   234.00
                              248.34   256.16   283.23   291.78   316.31
                              340.70   344.34   353.73   366.22   398.85
                              406.21   412.24   419.04   425.61   445.82
                              474.38   493.52   511.01   521.87   530.06
                              592.06   608.07   618.89   654.80   670.45
                              688.59   705.76   710.55   749.96   759.80
                              786.22   812.89   819.32   832.26   868.07
                              881.85   931.23   967.66   973.44   976.50
                             1019.04  1030.10  1063.77  1138.71  1197.94
                             1217.09  1239.57  1271.08  1288.01  1329.42
                             1336.04  1347.20  1398.69  1419.79  1462.71
                             1467.33  1481.14  1512.35  1566.17  1605.83
                             1617.76  1626.02  1635.37  1637.54  1641.72
                             1652.82  1659.70  1669.24  1669.97  1680.01
                             1692.34  1696.28  1698.79  1699.58  1705.67
                             1710.43  1721.23  1722.22  1730.05  1740.71
                             1750.44  1763.41  1774.49  1820.42  1853.66
                             1874.64  1880.89  1917.00  1929.76  1957.92
                             1961.54  1980.62  1993.35  2003.73  2015.33
                             2020.37  2038.86  2044.38  2051.80  2064.89
                             2106.10  2118.54  2120.37  2121.65  2123.52
                             2133.61  2134.81  2143.92  2151.03  2157.37
                             2164.70  2169.58  2172.09  2173.84  2176.07
                             2386.08  2420.57  4273.49  4308.51  4311.39
                             4319.63  4323.05  4334.99  4344.35  4347.90
                             4365.39  4416.10  4434.55  4436.90  4446.90
                             4476.93  4494.61  4522.46  4527.94  4530.10
                             4542.37  4621.80  4626.99  4639.78

 Zero-point correction=                           0.410220 (Hartree/Particle)
 Thermal correction to Energy=                    0.443613
 Thermal correction to Enthalpy=                  0.444557
 Thermal correction to Gibbs Free Energy=         0.341675
 Sum of electronic and zero-point Energies=          -2297.452707
 Sum of electronic and thermal Energies=             -2297.419314
 Sum of electronic and thermal Enthalpies=           -2297.418369
 Sum of electronic and thermal Free Energies=        -2297.521252

                     E (Thermal)             CV                S
                      KCal/Mol        Cal/Mol-Kelvin    Cal/Mol-Kelvin
 Total                  278.372            120.904            216.535
 Electronic               0.000              0.000              0.000
 Translational            0.889              2.981             44.587
 Rotational               0.889              2.981             36.939
 Vibrational            276.594            114.943            135.009
 Vibration     1          0.593              1.986              7.194
 Vibration     2          0.593              1.986              6.856
 Vibration     3          0.594              1.983              5.762
 Vibration     4          0.594              1.983              5.695
 Vibration     5          0.594              1.982              5.350
 Vibration     6          0.594              1.982              5.343
 Vibration     7          0.595              1.980              5.066
 Vibration     8          0.596              1.976              4.697
 Vibration     9          0.597              1.970              4.267
 Vibration    10          0.598              1.968              4.124
 Vibration    11          0.599              1.965              3.992
 Vibration    12          0.601              1.958              3.711
 Vibration    13          0.604              1.949              3.461
 Vibration    14          0.604              1.948              3.439
 Vibration    15          0.606              1.941              3.257
 Vibration    16          0.608              1.936              3.167
 Vibration    17          0.612              1.921              2.911
 Vibration    18          0.618              1.902              2.662
 Vibration    19          0.622              1.889              2.527
 Vibration    20          0.623              1.888              2.519
 Vibration    21          0.626              1.876              2.407
 Vibration    22          0.628              1.869              2.349
 Vibration    23          0.636              1.844              2.162
 Vibration    24          0.639              1.836              2.108
 Vibration    25          0.647              1.811              1.960
 Vibration    26          0.656              1.784              1.827
 Vibration    27          0.657              1.780              1.808
 Vibration    28          0.660              1.770              1.760
 Vibration    29          0.665              1.755              1.699
 Vibration    30          0.678              1.716              1.551
 Vibration    31          0.681              1.706              1.520
 Vibration    32          0.684              1.699              1.494
 Vibration    33          0.687              1.690              1.467
 Vibration    34          0.690              1.682              1.440
 Vibration    35          0.699              1.655              1.363
 Vibration    36          0.712              1.616              1.262
 Vibration    37          0.722              1.589              1.198
 Vibration    38          0.731              1.565              1.143
 Vibration    39          0.737              1.549              1.110
 Vibration    40          0.741              1.537              1.086
 Vibration    41          0.775              1.445              0.921
 Vibration    42          0.785              1.421              0.883
 Vibration    43          0.791              1.405              0.858
 Vibration    44          0.813              1.350              0.780
 Vibration    45          0.823              1.326              0.749
 Vibration    46          0.835              1.298              0.714
 Vibration    47          0.846              1.271              0.682
 Vibration    48          0.850              1.264              0.674
 Vibration    49          0.876              1.203              0.607
 Vibration    50          0.883              1.188              0.591
 Vibration    51          0.902              1.147              0.552
 Vibration    52          0.921              1.107              0.514
 Vibration    53          0.926              1.097              0.505
 Vibration    54          0.935              1.078              0.488
 Vibration    55          0.962              1.025              0.444
 Vibration    56          0.972              1.005              0.428

                           ! Non-Optimized Parameters !
 Normal termination of Gaussian 16 at Wed Jun  5 18:59:31 2019.
