 Gaussian 16, Revision A.03,
 Gaussian 16:  AS64L-G16RevA.03 25-Dec-2016

 ----------------------------------------------------------------------
 #p opt freq=noraman pop=none 6-31g* scrf=(pcm,solvent=tetrahydrofuran)
  lc-wpbe empiricaldispersion=gd3bj
 ----------------------------------------------------------------------

 -----
 title
 -----
 Symbolic Z-matrix:
 Charge =  0 Multiplicity = 1

 SCF Done:  E(RLC-wPBE) =  -2296.91180913     A.U. after   14 cycles
 Optimization completed.
    -- Stationary point found.
 Normal termination of Gaussian 16 at Wed Jun  5 17:35:49 2019.

 ----------------------------------------------------------------------
 #P Geom=AllCheck Guess=TCheck SCRF=Check GenChk RLC-wPBE/6-31G(d) Freq
 ----------------------------------------------------------------------

 Structure from the checkpoint file:  "/scratch/users/ekwan/clay_new-glu_gluC6-bisCF3-sm-lcwpbe_d3bj-631gd-pcm_thf/Gau-5622.chk"
 -----
 title
 -----
 Charge =  0 Multiplicity = 1

                         Standard orientation:
 ---------------------------------------------------------------------
 Center     Atomic      Atomic             Coordinates (Angstroms)
 Number     Number       Type             X           Y           Z
 ---------------------------------------------------------------------
      1          6           0        3.369335    0.385728    0.557024
      2          6           0        3.283222   -0.530191   -0.653334
      3          6           0        1.828210   -0.857614   -0.985224
      4          6           0        1.022274    1.113529    0.049853
      5          6           0        2.432570    1.569045    0.391570
      6          1           0        1.735469   -1.398854   -1.927513
      7          1           0        3.685636    0.010026   -1.524111
      8          1           0        3.068238   -0.175856    1.451310
      9          1           0        0.613314    0.552949    0.900467
     10          1           0        2.801450    2.200663   -0.425568
     11          8           0        1.035914    0.266687   -1.102696
     12          8           0        1.365251   -1.714562    0.079209
     13          8           0        4.039622   -1.676067   -0.390518
     14          8           0        4.675506    0.886724    0.705226
     15          8           0        2.363071    2.299078    1.592091
     16          6           0        0.097796    2.285902   -0.221209
     17          1           0       -0.103802    2.771548    0.735723
     18          1           0       -0.849284    1.909926   -0.628396
     19          8           0        0.638942    3.274749   -1.059607
     20         16           0        0.099012   -2.658583   -0.205483
     21          8           0        0.086651   -3.596378    0.890277
     22          8           0        0.151359   -3.102982   -1.582657
     23          6           0       -1.263596   -1.552776   -0.024377
     24          6           0       -1.717875   -1.255078    1.248888
     25          6           0       -1.817540   -0.977663   -1.155624
     26          6           0       -2.756349   -0.347080    1.385132
     27          1           0       -1.268138   -1.723975    2.117524
     28          6           0       -2.853737   -0.074635   -0.995700
     29          1           0       -1.441328   -1.230922   -2.139858
     30          6           0       -3.325083    0.245658    0.269303
     31          1           0       -4.133852    0.958998    0.384993
     32          6           0        4.233594   -2.513032   -1.509895
     33          1           0        3.317534   -3.051241   -1.782064
     34          1           0        4.584926   -1.940232   -2.377414
     35          1           0        4.994755   -3.242900   -1.232371
     36          6           0        5.451940    0.202717    1.665907
     37          1           0        6.429026    0.688663    1.686692
     38          1           0        4.997757    0.276052    2.662182
     39          1           0        5.575636   -0.851584    1.402776
     40          6           0        3.023157    3.546973    1.535325
     41          1           0        2.894062    4.019277    2.510826
     42          1           0        4.091123    3.417024    1.334000
     43          1           0        2.580317    4.187130    0.763211
     44          6           0        0.634333    2.939171   -2.431440
     45          1           0        0.849571    3.855610   -2.983998
     46          1           0       -0.347372    2.557445   -2.737121
     47          1           0        1.391631    2.186673   -2.672937
     48          6           0       -3.302003   -0.042364    2.752267
     49          9           0       -2.353241   -0.153760    3.692261
     50          9           0       -4.291615   -0.887210    3.079454
     51          9           0       -3.800473    1.200465    2.813367
     52          6           0       -3.425672    0.627937   -2.193629
     53          9           0       -2.853294    1.836299   -2.359202
     54          9           0       -4.742409    0.833152   -2.060415
     55          9           0       -3.224395   -0.066105   -3.319937
 ---------------------------------------------------------------------

 SCF Done:  E(RLC-wPBE) =  -2296.91180913     A.U. after    1 cycles

 Isotropic polarizability for W=    0.000000      258.83 Bohr**3.
 End of Minotr F.D. properties file   721 does not exist.

                      1                      2                      3
                      A                      A                      A
 Frequencies --     15.1479                20.0522                20.6003
 Red. masses --      7.6040                16.6977                 8.1833
 Frc consts  --      0.0010                 0.0040                 0.0020
 IR Inten    --      0.2976                 0.0068                 0.1085

                      4                      5                      6
                      A                      A                      A
 Frequencies --     26.4466                36.3316                43.4680
 Red. masses --     13.2276                 5.1345                 5.7317
 Frc consts  --      0.0055                 0.0040                 0.0064
 IR Inten    --      0.0376                 0.3912                 0.7828

                      7                      8                      9
                      A                      A                      A
 Frequencies --     52.2028                58.0290                64.7246
 Red. masses --      3.7551                 3.4972                 3.8466
 Frc consts  --      0.0060                 0.0069                 0.0095
 IR Inten    --      0.2836                 1.6789                 2.9806

                     10                     11                     12
                      A                      A                      A
 Frequencies --     69.9716                72.7190                84.3341
 Red. masses --      3.2658                 3.0580                 3.6156
 Frc consts  --      0.0094                 0.0095                 0.0152
 IR Inten    --      2.3287                 9.1938                 2.8586

                     13                     14                     15
                      A                      A                      A
 Frequencies --     97.5321               102.3185               106.1863
 Red. masses --      3.9743                13.3283                 8.0370
 Frc consts  --      0.0223                 0.0822                 0.0534
 IR Inten    --      2.5608                 3.7611                 3.0432

                     16                     17                     18
                      A                      A                      A
 Frequencies --    116.0490               128.8288               154.9006
 Red. masses --      6.2278                 2.4067                 7.5584
 Frc consts  --      0.0494                 0.0235                 0.1069
 IR Inten    --      0.8154                 3.7803                 0.3146

                     19                     20                     21
                      A                      A                      A
 Frequencies --    161.4452               172.8824               176.8064
 Red. masses --      1.3320                 5.3034                 2.4177
 Frc consts  --      0.0205                 0.0934                 0.0445
 IR Inten    --      0.4244                 0.9824                 1.1076

                     22                     23                     24
                      A                      A                      A
 Frequencies --    184.0574               194.3806               205.6256
 Red. masses --      1.6477                 1.8340                 2.8327
 Frc consts  --      0.0329                 0.0408                 0.0706
 IR Inten    --      0.5628                 2.0235                 9.7229

                     25                     26                     27
                      A                      A                      A
 Frequencies --    214.6391               231.2719               239.0154
 Red. masses --      1.6869                 1.9182                 9.8761
 Frc consts  --      0.0458                 0.0605                 0.3324
 IR Inten    --      0.5524                 8.6137                 0.8431

                     28                     29                     30
                      A                      A                      A
 Frequencies --    247.7543               261.1252               270.1832
 Red. masses --      3.4830                 8.2480                 3.6914
 Frc consts  --      0.1260                 0.3314                 0.1588
 IR Inten    --      4.8380                 5.7135                11.1355

                     31                     32                     33
                      A                      A                      A
 Frequencies --    286.3168               290.9721               298.2025
 Red. masses --     12.0492                 4.6794                10.7223
 Frc consts  --      0.5820                 0.2334                 0.5618
 IR Inten    --      4.3116                 9.2324                 6.0528

                     34                     35                     36
                      A                      A                      A
 Frequencies --    301.4125               317.9313               331.5817
 Red. masses --      7.3962                 5.3101                 3.9537
 Frc consts  --      0.3959                 0.3162                 0.2561
 IR Inten    --     12.1792                 0.1412                 3.3163

                     37                     38                     39
                      A                      A                      A
 Frequencies --    349.4480               359.0319               365.9755
 Red. masses --      7.4203                 5.4635                 5.6330
 Frc consts  --      0.5339                 0.4149                 0.4445
 IR Inten    --      2.1083                 1.5500                 7.8768

                     40                     41                     42
                      A                      A                      A
 Frequencies --    380.3424               419.7982               431.4804
 Red. masses --      9.0006                 9.9798                 8.6286
 Frc consts  --      0.7671                 1.0362                 0.9465
 IR Inten    --     15.0394                15.2898                 6.3705

                     43                     44                     45
                      A                      A                      A
 Frequencies --    439.1180               462.9740               479.5443
 Red. masses --      2.1435                 5.8820                 8.2360
 Frc consts  --      0.2435                 0.7428                 1.1159
 IR Inten    --      9.7250                 7.0804                15.3963

                     46                     47                     48
                      A                      A                      A
 Frequencies --    485.5110               503.9927               506.8605
 Red. masses --      4.0576                 8.7612                10.2975
 Frc consts  --      0.5635                 1.3112                 1.5587
 IR Inten    --      9.2391                 9.1110                 6.3978

                     49                     50                     51
                      A                      A                      A
 Frequencies --    534.3556               542.7900               555.0936
 Red. masses --      4.6603                 8.5764                 5.3363
 Frc consts  --      0.7840                 1.4887                 0.9688
 IR Inten    --     42.5974                36.0296                 5.1552

                     52                     53                     54
                      A                      A                      A
 Frequencies --    577.6720               580.5180               600.9252
 Red. masses --     12.0239                 4.0789                10.7164
 Frc consts  --      2.3640                 0.8099                 2.2800
 IR Inten    --      8.0047                39.0350               247.8209

                     55                     56                     57
                      A                      A                      A
 Frequencies --    621.6506               624.7980               662.6734
 Red. masses --      7.5502                 6.7177                 5.7544
 Frc consts  --      1.7191                 1.5451                 1.4889
 IR Inten    --     17.4502                29.8515                17.0146

                     58                     59                     60
                      A                      A                      A
 Frequencies --    689.0771               692.1943               709.2542
 Red. masses --     12.9338                 7.5909                 5.4091
 Frc consts  --      3.6184                 2.1429                 1.6032
 IR Inten    --     58.0033                 1.6005                13.4389

                     61                     62                     63
                      A                      A                      A
 Frequencies --    723.8719               733.8034               760.7882
 Red. masses --      2.3465                10.3657                 5.3441
 Frc consts  --      0.7244                 3.2886                 1.8224
 IR Inten    --     37.9301                 0.2425                34.6405

                     64                     65                     66
                      A                      A                      A
 Frequencies --    857.9716               876.6672               885.0304
 Red. masses --      4.8033                 4.5972                11.9610
 Frc consts  --      2.0832                 2.0817                 5.5199
 IR Inten    --     86.5497                 3.3929                20.6063

                     67                     68                     69
                      A                      A                      A
 Frequencies --    899.6066               941.5112               953.5379
 Red. masses --      6.2555                 4.6666                 1.7100
 Frc consts  --      2.9827                 2.4373                 0.9160
 IR Inten    --    335.0482               265.5957                84.9696

                     70                     71                     72
                      A                      A                      A
 Frequencies --    970.2303               982.5246               990.6874
 Red. masses --      2.5304                 1.3996                 1.3787
 Frc consts  --      1.4034                 0.7961                 0.7973
 IR Inten    --     18.4832                 1.4411                 6.5473

                     73                     74                     75
                      A                      A                      A
 Frequencies --   1020.0151              1023.7104              1033.6314
 Red. masses --      4.3105                 3.7163                 6.3614
 Frc consts  --      2.6424                 2.2946                 4.0044
 IR Inten    --     53.5722                24.5372                 3.7222

                     76                     77                     78
                      A                      A                      A
 Frequencies --   1067.3093              1072.4451              1087.9197
 Red. masses --      3.6498                 3.3358                 3.9996
 Frc consts  --      2.4496                 2.2605                 2.7891
 IR Inten    --     41.7859                15.9810               147.7361

                     79                     80                     81
                      A                      A                      A
 Frequencies --   1129.8947              1150.2321              1156.8622
 Red. masses --      2.5314                 2.5565                 2.5632
 Frc consts  --      1.9041                 1.9929                 2.0211
 IR Inten    --     12.2428                 6.5277                59.0261

                     82                     83                     84
                      A                      A                      A
 Frequencies --   1159.9880              1169.3540              1173.4336
 Red. masses --      1.7413                 2.9943                 1.9287
 Frc consts  --      1.3805                 2.4123                 1.5647
 IR Inten    --     11.9083               154.9346                 1.9819

                     85                     86                     87
                      A                      A                      A
 Frequencies --   1182.2826              1196.1185              1199.1048
 Red. masses --      2.0008                 1.2921                 1.2754
 Frc consts  --      1.6478                 1.0891                 1.0804
 IR Inten    --    154.4661                 7.0719                 1.6248

                     88                     89                     90
                      A                      A                      A
 Frequencies --   1201.6100              1204.8095              1208.3618
 Red. masses --      1.3338                 1.3433                 1.9762
 Frc consts  --      1.1347                 1.1488                 1.7001
 IR Inten    --      8.4156                19.9014                37.2337

                     91                     92                     93
                      A                      A                      A
 Frequencies --   1212.3657              1218.5770              1219.1146
 Red. masses --      1.8822                 5.4653                 1.5608
 Frc consts  --      1.6300                 4.7816                 1.3668
 IR Inten    --      9.1441               542.5228                60.6776

                     94                     95                     96
                      A                      A                      A
 Frequencies --   1226.2669              1238.1008              1240.9168
 Red. masses --      9.6845                 2.1794                11.8294
 Frc consts  --      8.5802                 1.9683                10.7325
 IR Inten    --    373.0774                81.4965               354.1061

                     97                     98                     99
                      A                      A                      A
 Frequencies --   1249.9132              1253.9321              1255.7584
 Red. masses --      2.3944                 3.2226                 6.8449
 Frc consts  --      2.2040                 2.9854                 6.3596
 IR Inten    --    288.3557                61.5841                93.6402

                    100                    101                    102
                      A                      A                      A
 Frequencies --   1259.9516              1266.4617              1269.3808
 Red. masses --      3.2083                 7.5768                 2.6860
 Frc consts  --      3.0008                 7.1601                 2.5500
 IR Inten    --    186.9908               353.2124                50.7569

                    103                    104                    105
                      A                      A                      A
 Frequencies --   1279.1773              1292.6536              1307.2902
 Red. masses --      3.1256                 1.9772                 1.7069
 Frc consts  --      3.0134                 1.9465                 1.7187
 IR Inten    --    107.2903                19.8723                10.6150

                    106                    107                    108
                      A                      A                      A
 Frequencies --   1323.3302              1332.8841              1360.3612
 Red. masses --      1.4973                 3.7959                 1.2101
 Frc consts  --      1.5449                 3.9733                 1.3194
 IR Inten    --     11.6392               795.2065                19.3072

                    109                    110                    111
                      A                      A                      A
 Frequencies --   1370.4775              1374.9755              1390.3651
 Red. masses --      3.4091                 1.4555                 1.2641
 Frc consts  --      3.7725                 1.6213                 1.4398
 IR Inten    --     32.7685                 6.6625                26.8413

                    112                    113                    114
                      A                      A                      A
 Frequencies --   1397.0859              1408.9320              1422.1805
 Red. masses --      1.4025                 1.5302                 3.3541
 Frc consts  --      1.6128                 1.7896                 3.9970
 IR Inten    --      8.9716                67.9488               153.4088

                    115                    116                    117
                      A                      A                      A
 Frequencies --   1432.1647              1436.1121              1439.3676
 Red. masses --      6.7940                 1.7600                 1.4379
 Frc consts  --      8.2103                 2.1387                 1.7552
 IR Inten    --    141.5329                66.0482                 8.2352

                    118                    119                    120
                      A                      A                      A
 Frequencies --   1459.0855              1461.8881              1474.1218
 Red. masses --      1.4638                 1.6727                 1.6013
 Frc consts  --      1.8361                 2.1061                 2.0502
 IR Inten    --     21.0084                32.3105                10.0030

                    121                    122                    123
                      A                      A                      A
 Frequencies --   1498.0473              1507.1075              1508.6113
 Red. masses --      1.0897                 1.2158                 1.1732
 Frc consts  --      1.4409                 1.6270                 1.5731
 IR Inten    --      2.6325                 2.6961                 5.2653

                    124                    125                    126
                      A                      A                      A
 Frequencies --   1510.2753              1517.9364              1519.1282
 Red. masses --      1.1473                 1.0499                 1.0688
 Frc consts  --      1.5418                 1.4253                 1.4532
 IR Inten    --      5.8679                 4.0898                11.6191

                    127                    128                    129
                      A                      A                      A
 Frequencies --   1520.3809              1527.1156              1530.7140
 Red. masses --      1.0649                 1.1196                 1.1087
 Frc consts  --      1.4503                 1.5383                 1.5305
 IR Inten    --      8.1642                 1.9538                 5.7057

                    130                    131                    132
                      A                      A                      A
 Frequencies --   1536.0903              1541.7044              1542.0488
 Red. masses --      4.5753                 1.0509                 1.0509
 Frc consts  --      6.3607                 1.4717                 1.4724
 IR Inten    --      0.9394                15.2226                11.3431

                    133                    134                    135
                      A                      A                      A
 Frequencies --   1543.3083              1545.3686              1550.0736
 Red. masses --      1.0506                 1.0704                 4.8040
 Frc consts  --      1.4743                 1.5061                 6.8007
 IR Inten    --      7.2487                 9.8767                 0.1765

                    136                    137                    138
                      A                      A                      A
 Frequencies --   1732.4198              1748.7017              3076.8291
 Red. masses --      7.2167                 6.9263                 1.0750
 Frc consts  --     12.7614                12.4791                 5.9960
 IR Inten    --     27.2297                30.0899                26.7525

                    139                    140                    141
                      A                      A                      A
 Frequencies --   3079.0973              3085.7246              3089.7680
 Red. masses --      1.0433                 1.0366                 1.0329
 Frc consts  --      5.8281                 5.8156                 5.8098
 IR Inten    --     55.3748                57.0332                54.8377

                    142                    143                    144
                      A                      A                      A
 Frequencies --   3091.3995              3109.5521              3112.3685
 Red. masses --      1.0329                 1.0854                 1.0758
 Frc consts  --      5.8158                 6.1835                 6.1401
 IR Inten    --     41.2847                14.2118                 6.4103

                    145                    146                    147
                      A                      A                      A
 Frequencies --   3120.7846              3129.7639              3152.8642
 Red. masses --      1.0732                 1.0853                 1.1072
 Frc consts  --      6.1582                 6.2638                 6.4845
 IR Inten    --     30.3975                51.7120                47.0004

                    148                    149                    150
                      A                      A                      A
 Frequencies --   3172.4698              3174.6415              3175.1601
 Red. masses --      1.1053                 1.1015                 1.1056
 Frc consts  --      6.5543                 6.5406                 6.5674
 IR Inten    --     34.7470                50.0380                22.7400

                    151                    152                    153
                      A                      A                      A
 Frequencies --   3202.1755              3205.8165              3212.2923
 Red. masses --      1.1020                 1.0889                 1.1056
 Frc consts  --      6.6579                 6.5935                 6.7217
 IR Inten    --     13.9670                 8.7254                34.3554

                    154                    155                    156
                      A                      A                      A
 Frequencies --   3215.1867              3217.1784              3222.1941
 Red. masses --      1.1055                 1.1064                 1.1024
 Frc consts  --      6.7332                 6.7468                 6.7435
 IR Inten    --     28.3734                26.3452                22.0925

                    157                    158                    159
                      A                      A                      A
 Frequencies --   3283.8924              3287.5178              3296.9935
 Red. masses --      1.0940                 1.0935                 1.0938
 Frc consts  --      6.9507                 6.9635                 7.0054
 IR Inten    --      8.1141                 2.7556                 9.1120

 - Thermochemistry -
 -------------------
 Temperature   298.150 Kelvin.  Pressure   1.00000 Atm.
 Atom     1 has atomic number  6 and mass  12.00000

 Molecular mass:   512.09396 amu.
 Principal axes and moments of inertia in atomic units:
                           1         2         3
     Eigenvalues --  ******************************
           X            0.99995   0.00687   0.00745
           Y           -0.00791   0.98870   0.14973
           Z           -0.00634  -0.14978   0.98870
 This molecule is an asymmetric top.
 Rotational symmetry number  1.
 Warning -- assumption of classical behavior for rotation
           may cause significant error
 Rotational temperatures (Kelvin)      0.00732     0.00413     0.00406
 Rotational constants (GHZ):           0.15260     0.08615     0.08458
 Zero-point vibrational energy    1107800.2 (Joules/Mol)
                                  264.77061 (Kcal/Mol)
 Warning -- explicit consideration of  54 degrees of freedom as
           vibrations may cause significant error
 Vibrational temperatures:     21.79    28.85    29.64    38.05    52.27
          (Kelvin)             62.54    75.11    83.49    93.12   100.67
                              104.63   121.34   140.33   147.21   152.78
                              166.97   185.36   222.87   232.28   248.74
                              254.38   264.82   279.67   295.85   308.82
                              332.75   343.89   356.46   375.70   388.73
                              411.95   418.64   429.05   433.67   457.43
                              477.07   502.78   516.57   526.56   547.23
                              604.00   620.80   631.79   666.12   689.96
                              698.54   725.13   729.26   768.82   780.95
                              798.66   831.14   835.24   864.60   894.42
                              898.94   953.44   991.43   995.91  1020.46
                             1041.49  1055.78  1094.60  1234.43  1261.33
                             1273.36  1294.33  1354.62  1371.93  1395.95
                             1413.63  1425.38  1467.57  1472.89  1487.17
                             1535.62  1543.01  1565.27  1625.67  1654.93
                             1664.47  1668.96  1682.44  1688.31  1701.04
                             1720.95  1725.24  1728.85  1733.45  1738.56
                             1744.32  1753.26  1754.03  1764.32  1781.35
                             1785.40  1798.35  1804.13  1806.76  1812.79
                             1822.16  1826.36  1840.45  1859.84  1880.90
                             1903.98  1917.72  1957.26  1971.81  1978.28
                             2000.43  2010.10  2027.14  2046.20  2060.57
                             2066.24  2070.93  2099.30  2103.33  2120.93
                             2155.36  2168.39  2170.56  2172.95  2183.97
                             2185.69  2187.49  2197.18  2202.36  2210.09
                             2218.17  2218.66  2220.48  2223.44  2230.21
                             2492.57  2515.99  4426.87  4430.13  4439.67
                             4445.49  4447.83  4473.95  4478.00  4490.11
                             4503.03  4536.27  4564.48  4567.60  4568.35
                             4607.22  4612.45  4621.77  4625.94  4628.80
                             4636.02  4724.79  4730.00  4743.64

 Zero-point correction=                           0.421939 (Hartree/Particle)
 Thermal correction to Energy=                    0.454858
 Thermal correction to Enthalpy=                  0.455802
 Thermal correction to Gibbs Free Energy=         0.353401
 Sum of electronic and zero-point Energies=          -2296.489870
 Sum of electronic and thermal Energies=             -2296.456951
 Sum of electronic and thermal Enthalpies=           -2296.456007
 Sum of electronic and thermal Free Energies=        -2296.558408

                     E (Thermal)             CV                S
                      KCal/Mol        Cal/Mol-Kelvin    Cal/Mol-Kelvin
 Total                  285.428            118.204            215.520
 Electronic               0.000              0.000              0.000
 Translational            0.889              2.981             44.587
 Rotational               0.889              2.981             36.912
 Vibrational            283.650            112.243            134.022
 Vibration     1          0.593              1.986              7.186
 Vibration     2          0.593              1.986              6.629
 Vibration     3          0.593              1.986              6.575
 Vibration     4          0.593              1.985              6.080
 Vibration     5          0.594              1.982              5.450
 Vibration     6          0.595              1.980              5.094
 Vibration     7          0.596              1.977              4.732
 Vibration     8          0.596              1.974              4.523
 Vibration     9          0.597              1.971              4.308
 Vibration    10          0.598              1.968              4.154
 Vibration    11          0.599              1.967              4.078
 Vibration    12          0.601              1.960              3.787
 Vibration    13          0.603              1.951              3.503
 Vibration    14          0.604              1.947              3.410
 Vibration    15          0.605              1.944              3.337
 Vibration    16          0.608              1.936              3.165
 Vibration    17          0.611              1.924              2.963
 Vibration    18          0.620              1.897              2.611
 Vibration    19          0.622              1.890              2.533
 Vibration    20          0.626              1.876              2.404
 Vibration    21          0.628              1.871              2.362
 Vibration    22          0.631              1.862              2.287
 Vibration    23          0.635              1.848              2.186
 Vibration    24          0.640              1.832              2.082
 Vibration    25          0.645              1.819              2.004
 Vibration    26          0.653              1.793              1.869
 Vibration    27          0.657              1.781              1.810
 Vibration    28          0.661              1.766              1.747
 Vibration    29          0.669              1.744              1.654
 Vibration    30          0.674              1.728              1.595
 Vibration    31          0.684              1.699              1.496
 Vibration    32          0.687              1.691              1.468
 Vibration    33          0.691              1.677              1.427
 Vibration    34          0.693              1.671              1.409
 Vibration    35          0.704              1.639              1.321
 Vibration    36          0.714              1.612              1.252
 Vibration    37          0.727              1.576              1.169
 Vibration    38          0.734              1.557              1.126
 Vibration    39          0.739              1.542              1.097
 Vibration    40          0.750              1.512              1.038
 Vibration    41          0.782              1.427              0.893
 Vibration    42          0.793              1.402              0.854
 Vibration    43          0.799              1.385              0.829
 Vibration    44          0.821              1.332              0.757
 Vibration    45          0.836              1.295              0.711
 Vibration    46          0.842              1.282              0.695
 Vibration    47          0.859              1.241              0.648
 Vibration    48          0.862              1.235              0.641
 Vibration    49          0.889              1.174              0.578
 Vibration    50          0.898              1.155              0.559
 Vibration    51          0.911              1.129              0.534
 Vibration    52          0.934              1.080              0.490
 Vibration    53          0.937              1.073              0.484
 Vibration    54          0.959              1.030              0.448

                           ! Non-Optimized Parameters !
 Normal termination of Gaussian 16 at Wed Jun  5 18:25:19 2019.
