 Gaussian 16, Revision A.03,
 Gaussian 16:  AS64L-G16RevA.03 25-Dec-2016

 ----------------------------------------------------------------------
 #p opt freq=noraman pop=none 6-31g* scrf=(pcm,solvent=tetrahydrofuran)
  b971
 ----------------------------------------------------------------------

 -----
 title
 -----
 Symbolic Z-matrix:
 Charge =  0 Multiplicity = 1

 SCF Done:  E(RB971) =  -2297.51132465     A.U. after   13 cycles
 Optimization completed.
    -- Stationary point found.
 Normal termination of Gaussian 16 at Wed Jun  5 15:41:00 2019.

 -------------------------------------------------------------------
 #P Geom=AllCheck Guess=TCheck SCRF=Check GenChk RB971/6-31G(d) Freq
 -------------------------------------------------------------------

 Structure from the checkpoint file:  "/scratch/users/ekwan/clay_new-glu_gluC6-bisCF3-sm-b971-631gd-pcm_thf/Gau-14883.chk"
 -----
 title
 -----
 Charge =  0 Multiplicity = 1

                         Standard orientation:
 ---------------------------------------------------------------------
 Center     Atomic      Atomic             Coordinates (Angstroms)
 Number     Number       Type             X           Y           Z
 ---------------------------------------------------------------------
      1          6           0        3.543625   -0.175836    0.733428
      2          6           0        3.364609   -0.512532   -0.757537
      3          6           0        1.876993   -0.430721   -1.176646
      4          6           0        1.342580    1.090601    0.596759
      5          6           0        2.804836    1.128310    1.077589
      6          1           0        1.756586   -0.515343   -2.258972
      7          1           0        3.884825    0.264619   -1.345031
      8          1           0        3.119328   -0.989792    1.341693
      9          1           0        0.800263    0.320313    1.167055
     10          1           0        3.313041    1.966115    0.578739
     11          8           0        1.275375    0.765453   -0.809763
     12          8           0        1.212192   -1.574725   -0.555055
     13          8           0        3.927883   -1.779080   -1.007984
     14          8           0        4.914973    0.011513    1.043837
     15          8           0        2.782775    1.319522    2.483637
     16          6           0        0.614505    2.421975    0.815790
     17          1           0        0.510079    2.554761    1.898446
     18          1           0       -0.391701    2.359590    0.372756
     19          8           0        1.301793    3.564483    0.341293
     20         16           0       -0.089070   -2.230616   -1.288488
     21          8           0       -0.189284   -3.568197   -0.725884
     22          8           0        0.022169   -2.015437   -2.728698
     23          6           0       -1.463814   -1.251308   -0.673815
     24          6           0       -2.136168   -1.678184    0.473048
     25          6           0       -1.826048   -0.085727   -1.353510
     26          6           0       -3.201121   -0.906499    0.950092
     27          1           0       -1.838770   -2.593957    0.974844
     28          6           0       -2.885129    0.676365   -0.852739
     29          1           0       -1.298282    0.218000   -2.251707
     30          6           0       -3.575247    0.270929    0.295217
     31          1           0       -4.399920    0.867049    0.674124
     32          6           0        4.181718   -2.054267   -2.380050
     33          1           0        3.253393   -2.194525   -2.953795
     34          1           0        4.773304   -1.250640   -2.845376
     35          1           0        4.754364   -2.985722   -2.409352
     36          6           0        5.559177   -1.126174    1.603889
     37          1           0        6.586997   -0.821592    1.826868
     38          1           0        5.069041   -1.439209    2.539132
     39          1           0        5.571365   -1.970358    0.903381
     40          6           0        3.665609    2.333699    2.948805
     41          1           0        3.540001    2.381482    4.035483
     42          1           0        4.710141    2.091888    2.712531
     43          1           0        3.410172    3.311949    2.513702
     44          6           0        1.117894    3.838838   -1.042177
     45          1           0        1.521830    4.841290   -1.218460
     46          1           0        0.048932    3.830041   -1.307422
     47          1           0        1.644372    3.117747   -1.681191
     48          6           0       -3.991250   -1.383223    2.151038
     49          9           0       -3.222080   -2.092003    2.999105
     50          9           0       -5.014070   -2.180088    1.777866
     51          9           0       -4.519543   -0.351054    2.836590
     52          6           0       -3.245132    1.984633   -1.523175
     53          9           0       -2.551363    3.015586   -0.981825
     54          9           0       -4.551249    2.274419   -1.382455
     55          9           0       -2.962036    1.965655   -2.838033
 ---------------------------------------------------------------------

 SCF Done:  E(RB971) =  -2297.51132465     A.U. after    1 cycles

 Isotropic polarizability for W=    0.000000      277.57 Bohr**3.
 End of Minotr F.D. properties file   721 does not exist.

                      1                      2                      3
                      A                      A                      A
 Frequencies --     11.3045                16.6754                18.8655
 Red. masses --      9.6098                15.8454                 6.7004
 Frc consts  --      0.0007                 0.0026                 0.0014
 IR Inten    --      0.1240                 0.0794                 0.2593

                      4                      5                      6
                      A                      A                      A
 Frequencies --     26.8141                38.0842                43.3023
 Red. masses --     12.0255                 5.1816                 5.6981
 Frc consts  --      0.0051                 0.0044                 0.0063
 IR Inten    --      0.0176                 0.2511                 0.2202

                      7                      8                      9
                      A                      A                      A
 Frequencies --     50.3057                56.3074                66.2237
 Red. masses --      5.2593                 3.5436                 4.1017
 Frc consts  --      0.0078                 0.0066                 0.0106
 IR Inten    --      1.4437                 1.5745                 1.1486

                     10                     11                     12
                      A                      A                      A
 Frequencies --     72.6349                76.7393                84.3217
 Red. masses --      3.6665                 2.9482                 3.1391
 Frc consts  --      0.0114                 0.0102                 0.0132
 IR Inten    --      2.6504                 3.4702                 2.3197

                     13                     14                     15
                      A                      A                      A
 Frequencies --     89.7768                99.6694               102.0571
 Red. masses --      2.6280                12.1130                 6.1841
 Frc consts  --      0.0125                 0.0709                 0.0379
 IR Inten    --      6.5609                 2.8695                 4.4340

                     16                     17                     18
                      A                      A                      A
 Frequencies --    113.7202               118.5127               149.1452
 Red. masses --      4.2773                 3.3707                 7.5024
 Frc consts  --      0.0326                 0.0279                 0.0983
 IR Inten    --      1.6585                 2.7397                 0.1860

                     19                     20                     21
                      A                      A                      A
 Frequencies --    157.2568               165.5718               169.9357
 Red. masses --      1.3460                 2.4721                 3.5981
 Frc consts  --      0.0196                 0.0399                 0.0612
 IR Inten    --      0.4875                 0.3331                 1.3980

                     22                     23                     24
                      A                      A                      A
 Frequencies --    180.1339               189.4806               197.0398
 Red. masses --      1.6417                 3.2612                 2.1050
 Frc consts  --      0.0314                 0.0690                 0.0482
 IR Inten    --      1.5921                 3.9279                 3.9474

                     25                     26                     27
                      A                      A                      A
 Frequencies --    205.2111               227.1015               236.4343
 Red. masses --      1.6642                 2.2923                12.1693
 Frc consts  --      0.0413                 0.0697                 0.4008
 IR Inten    --      0.5606                 9.0342                 0.1668

                     28                     29                     30
                      A                      A                      A
 Frequencies --    243.9877               254.7518               258.2316
 Red. masses --      4.1363                 5.9238                 3.1788
 Frc consts  --      0.1451                 0.2265                 0.1249
 IR Inten    --      3.8519                11.4503                11.2222

                     31                     32                     33
                      A                      A                      A
 Frequencies --    280.2397               286.2523               289.4594
 Red. masses --     10.6326                 5.2213                 9.5227
 Frc consts  --      0.4920                 0.2521                 0.4701
 IR Inten    --      3.0323                12.0365                 2.7268

                     34                     35                     36
                      A                      A                      A
 Frequencies --    291.4254               311.1138               322.5969
 Red. masses --      7.7087                 5.5078                 4.1245
 Frc consts  --      0.3857                 0.3141                 0.2529
 IR Inten    --     10.0990                 0.1756                 4.5137

                     37                     38                     39
                      A                      A                      A
 Frequencies --    340.8538               350.2028               357.9968
 Red. masses --      7.0399                 7.3597                 4.3877
 Frc consts  --      0.4819                 0.5318                 0.3313
 IR Inten    --      1.1091                 5.2609                 5.4161

                     40                     41                     42
                      A                      A                      A
 Frequencies --    364.8949               409.7135               417.3690
 Red. masses --      9.3546                10.1801                 8.8729
 Frc consts  --      0.7339                 1.0068                 0.9107
 IR Inten    --     15.2249                14.6183                 6.9401

                     43                     44                     45
                      A                      A                      A
 Frequencies --    442.1428               449.7797               460.5006
 Red. masses --      2.2219                 5.2802                 8.4557
 Frc consts  --      0.2559                 0.6294                 1.0565
 IR Inten    --      7.3115                12.5583                13.5861

                     46                     47                     48
                      A                      A                      A
 Frequencies --    468.1867               492.4477               497.8363
 Red. masses --      4.0276                 8.0519                11.9160
 Frc consts  --      0.5202                 1.1505                 1.7400
 IR Inten    --      9.3248                18.0210                 1.1694

                     49                     50                     51
                      A                      A                      A
 Frequencies --    521.1269               526.9568               538.3314
 Red. masses --      4.9489                10.6030                 4.5945
 Frc consts  --      0.7918                 1.7347                 0.7845
 IR Inten    --     41.5218                25.6825                13.9834

                     52                     53                     54
                      A                      A                      A
 Frequencies --    564.2685               566.2329               577.3005
 Red. masses --      3.8348                14.8891                11.5207
 Frc consts  --      0.7194                 2.8126                 2.2622
 IR Inten    --     36.8060                27.6511               259.0091

                     55                     56                     57
                      A                      A                      A
 Frequencies --    599.4842               609.6941               628.4138
 Red. masses --      6.9474                 8.1642                 5.5414
 Frc consts  --      1.4711                 1.7881                 1.2893
 IR Inten    --     37.5573                 2.0020                13.6393

                     58                     59                     60
                      A                      A                      A
 Frequencies --    670.0988               676.7833               678.7423
 Red. masses --      7.7148                 6.9618                11.1429
 Frc consts  --      2.0410                 1.8788                 3.0245
 IR Inten    --      0.8660                59.7675                53.7817

                     61                     62                     63
                      A                      A                      A
 Frequencies --    703.1805               714.8092               727.6092
 Red. masses --      2.6554                 8.6780                 5.8281
 Frc consts  --      0.7736                 2.6125                 1.8179
 IR Inten    --     24.8380                10.2131                78.7656

                     64                     65                     66
                      A                      A                      A
 Frequencies --    800.1260               829.8870               835.4014
 Red. masses --      8.9771                 4.3815                 7.5441
 Frc consts  --      3.3861                 1.7779                 3.1021
 IR Inten    --    498.5976               123.4578                71.4411

                     67                     68                     69
                      A                      A                      A
 Frequencies --    855.7316               875.2378               904.0248
 Red. masses --     12.0433                 4.0125                 1.5499
 Frc consts  --      5.1960                 1.8110                 0.7463
 IR Inten    --     23.4796                43.4926                67.4763

                     70                     71                     72
                      A                      A                      A
 Frequencies --    924.2535               936.9587               951.5691
 Red. masses --      2.8658                 1.4023                 1.3662
 Frc consts  --      1.4424                 0.7253                 0.7288
 IR Inten    --     25.0248                 4.3464                 8.6700

                     73                     74                     75
                      A                      A                      A
 Frequencies --    964.8079               974.6781              1003.1197
 Red. masses --      4.9284                 4.3021                 4.2799
 Frc consts  --      2.7029                 2.4080                 2.5374
 IR Inten    --      7.5377                42.8577                44.9987

                     76                     77                     78
                      A                      A                      A
 Frequencies --   1008.4481              1019.8039              1040.3321
 Red. masses --      6.2317                 4.4446                 3.5697
 Frc consts  --      3.7339                 2.7235                 2.2763
 IR Inten    --      1.7560                16.5674               129.5023

                     79                     80                     81
                      A                      A                      A
 Frequencies --   1079.6774              1109.2978              1115.7209
 Red. masses --      3.2032                11.7041                 2.9937
 Frc consts  --      2.2000                 8.4856                 2.1957
 IR Inten    --     16.7200                89.2138               112.9984

                     82                     83                     84
                      A                      A                      A
 Frequencies --   1121.8300              1126.0335              1131.8651
 Red. masses --      2.7317                 2.2202                 2.4708
 Frc consts  --      2.0255                 1.6586                 1.8650
 IR Inten    --     14.4139                77.2726               139.2273

                     85                     86                     87
                      A                      A                      A
 Frequencies --   1132.2095              1147.6107              1154.0902
 Red. masses --      2.5865                 4.5259                 4.2788
 Frc consts  --      1.9535                 3.5119                 3.3577
 IR Inten    --    148.9736                64.7405               203.0796

                     88                     89                     90
                      A                      A                      A
 Frequencies --   1159.7633              1165.7300              1172.5722
 Red. masses --      5.9761                 9.3235                 3.5204
 Frc consts  --      4.7359                 7.4649                 2.8518
 IR Inten    --    563.3628               389.9949                44.6251

                     91                     92                     93
                      A                      A                      A
 Frequencies --   1182.1977              1182.5672              1183.0935
 Red. masses --      1.6360                 3.7020                 6.0982
 Frc consts  --      1.3471                 3.0503                 5.0291
 IR Inten    --     76.5897               143.6056               298.4462

                     94                     95                     96
                      A                      A                      A
 Frequencies --   1186.7524              1188.2088              1189.0774
 Red. masses --      1.3382                 1.3384                 2.2680
 Frc consts  --      1.1104                 1.1133                 1.8894
 IR Inten    --     12.1269                20.0929                55.0960

                     97                     98                     99
                      A                      A                      A
 Frequencies --   1191.0104              1211.3535              1213.7220
 Red. masses --      1.4178                 7.6363                 1.3978
 Frc consts  --      1.1850                 6.6020                 1.2132
 IR Inten    --     36.5193               171.5874                54.1903

                    100                    101                    102
                      A                      A                      A
 Frequencies --   1217.6921              1222.9295              1231.5195
 Red. masses --      6.6472                 1.4818                 1.6961
 Frc consts  --      5.8072                 1.3057                 1.5156
 IR Inten    --    272.7432                27.9567                12.3535

                    103                    104                    105
                      A                      A                      A
 Frequencies --   1237.6297              1264.0163              1282.0628
 Red. masses --      1.6137                 1.7560                 3.3994
 Frc consts  --      1.4563                 1.6531                 3.2921
 IR Inten    --     30.8893                 8.0021               772.7816

                    106                    107                    108
                      A                      A                      A
 Frequencies --   1302.3161              1308.1885              1336.4936
 Red. masses --      1.4473                 1.4258                 1.4146
 Frc consts  --      1.4463                 1.4376                 1.4887
 IR Inten    --      2.4183                22.6745                 2.1147

                    109                    110                    111
                      A                      A                      A
 Frequencies --   1343.1361              1352.7101              1365.7677
 Red. masses --      1.1855                10.0633                 5.3517
 Frc consts  --      1.2601                10.8493                 5.8815
 IR Inten    --     12.2305               242.2096               207.0332

                    112                    113                    114
                      A                      A                      A
 Frequencies --   1369.1426              1371.6128              1373.7452
 Red. masses --      1.2698                 3.0697                 1.4270
 Frc consts  --      1.4025                 3.4026                 1.5866
 IR Inten    --     16.7540                21.2139                16.1700

                    115                    116                    117
                      A                      A                      A
 Frequencies --   1390.9099              1400.7332              1413.6804
 Red. masses --      1.3710                 1.3645                 1.2927
 Frc consts  --      1.5627                 1.5774                 1.5221
 IR Inten    --      2.7115                12.5978                 9.7190

                    118                    119                    120
                      A                      A                      A
 Frequencies --   1422.7688              1430.6576              1440.6425
 Red. masses --      1.3407                 1.2830                 1.3237
 Frc consts  --      1.5990                 1.5472                 1.6187
 IR Inten    --     34.0452                10.2552                11.9334

                    121                    122                    123
                      A                      A                      A
 Frequencies --   1480.1167              1488.4728              1488.7372
 Red. masses --      3.6474                 1.6704                 1.7634
 Frc consts  --      4.7079                 2.1805                 2.3027
 IR Inten    --      6.6579                 1.3370                 2.9461

                    124                    125                    126
                      A                      A                      A
 Frequencies --   1494.5126              1496.1396              1498.7808
 Red. masses --      1.1633                 1.1597                 1.1195
 Frc consts  --      1.5309                 1.5295                 1.4817
 IR Inten    --      0.9913                 0.9597                 5.7724

                    127                    128                    129
                      A                      A                      A
 Frequencies --   1506.2952              1508.9688              1509.4341
 Red. masses --      1.0514                 1.0651                 1.0546
 Frc consts  --      1.4055                 1.4289                 1.4157
 IR Inten    --      2.3602                13.6318                 0.6439

                    130                    131                    132
                      A                      A                      A
 Frequencies --   1514.5205              1517.6584              1528.8041
 Red. masses --      1.1221                 1.0888                 1.0505
 Frc consts  --      1.5165                 1.4775                 1.4466
 IR Inten    --      1.1920                 4.9133                11.9245

                    133                    134                    135
                      A                      A                      A
 Frequencies --   1533.2310              1533.9351              1536.0917
 Red. masses --      1.0510                 1.0499                 1.0562
 Frc consts  --      1.4557                 1.4556                 1.4683
 IR Inten    --      9.0853                 6.6578                 9.6500

                    136                    137                    138
                      A                      A                      A
 Frequencies --   1640.0617              1661.4775              2997.0592
 Red. masses --      6.0947                 5.8251                 1.0814
 Frc consts  --      9.6589                 9.4741                 5.7231
 IR Inten    --     15.1495                20.2652                28.7598

                    139                    140                    141
                      A                      A                      A
 Frequencies --   3011.5666              3016.1107              3018.8897
 Red. masses --      1.0359                 1.0403                 1.0362
 Frc consts  --      5.5353                 5.5758                 5.5642
 IR Inten    --     74.3408                68.0211                63.2183

                    142                    143                    144
                      A                      A                      A
 Frequencies --   3019.2945              3031.4890              3033.6199
 Red. masses --      1.0359                 1.0756                 1.0831
 Frc consts  --      5.5640                 5.8240                 5.8725
 IR Inten    --     59.4936                10.1002                19.7379

                    145                    146                    147
                      A                      A                      A
 Frequencies --   3042.2667              3057.0668              3070.5129
 Red. masses --      1.0713                 1.0846                 1.1059
 Frc consts  --      5.8418                 5.9724                 6.1430
 IR Inten    --     49.2120                62.4112                62.7635

                    148                    149                    150
                      A                      A                      A
 Frequencies --   3089.3696              3092.2617              3096.8145
 Red. masses --      1.0996                 1.1013                 1.0943
 Frc consts  --      6.1835                 6.2043                 6.1831
 IR Inten    --     47.7782                54.9773                51.0640

                    151                    152                    153
                      A                      A                      A
 Frequencies --   3117.9556              3134.1555              3137.7941
 Red. masses --      1.0992                 1.1032                 1.1031
 Frc consts  --      6.2961                 6.3848                 6.3990
 IR Inten    --     20.6814                48.1225                39.4118

                    154                    155                    156
                      A                      A                      A
 Frequencies --   3139.5251              3144.8935              3147.9258
 Red. masses --      1.1046                 1.0902                 1.0968
 Frc consts  --      6.4147                 6.3526                 6.4038
 IR Inten    --     36.8704                21.2543                21.0721

                    157                    158                    159
                      A                      A                      A
 Frequencies --   3237.7218              3240.3396              3245.3364
 Red. masses --      1.0917                 1.0918                 1.0918
 Frc consts  --      6.7427                 6.7540                 6.7749
 IR Inten    --      1.0454                 6.7618                 4.8202

 - Thermochemistry -
 -------------------
 Temperature   298.150 Kelvin.  Pressure   1.00000 Atm.
 Atom     1 has atomic number  6 and mass  12.00000

 Molecular mass:   512.09396 amu.
 Principal axes and moments of inertia in atomic units:
                           1         2         3
     Eigenvalues --  ******************************
           X            0.99994  -0.00029   0.01080
           Y           -0.00061   0.99648   0.08381
           Z           -0.01079  -0.08381   0.99642
 This molecule is an asymmetric top.
 Rotational symmetry number  1.
 Warning -- assumption of classical behavior for rotation
           may cause significant error
 Rotational temperatures (Kelvin)      0.00721     0.00386     0.00356
 Rotational constants (GHZ):           0.15013     0.08047     0.07413
 Zero-point vibrational energy    1078206.0 (Joules/Mol)
                                  257.69742 (Kcal/Mol)
 Warning -- explicit consideration of  56 degrees of freedom as
           vibrations may cause significant error
 Vibrational temperatures:     16.26    23.99    27.14    38.58    54.79
          (Kelvin)             62.30    72.38    81.01    95.28   104.51
                              110.41   121.32   129.17   143.40   146.84
                              163.62   170.51   214.59   226.26   238.22
                              244.50   259.17   272.62   283.50   295.25
                              326.75   340.18   351.04   366.53   371.54
                              403.20   411.85   416.47   419.30   447.62
                              464.14   490.41   503.86   515.08   525.00
                              589.49   600.50   636.14   647.13   662.56
                              673.62   708.52   716.28   749.79   758.17
                              774.54   811.86   814.68   830.61   862.52
                              877.21   904.15   964.12   973.74   976.56
                             1011.72  1028.45  1046.87  1151.20  1194.02
                             1201.96  1231.21  1259.27  1300.69  1329.79
                             1348.07  1369.10  1388.14  1402.34  1443.27
                             1450.93  1467.27  1496.81  1553.41  1596.03
                             1605.27  1614.06  1620.11  1628.50  1629.00
                             1651.16  1660.48  1668.64  1677.23  1687.07
                             1700.92  1701.45  1702.21  1707.47  1709.57
                             1710.82  1713.60  1742.87  1746.28  1751.99
                             1759.52  1771.88  1780.67  1818.64  1844.60
                             1873.74  1882.19  1922.92  1932.47  1946.25
                             1965.04  1969.89  1973.44  1976.51  2001.21
                             2015.34  2033.97  2047.05  2058.40  2072.76
                             2129.56  2141.58  2141.96  2150.27  2152.61
                             2156.41  2167.22  2171.07  2171.74  2179.06
                             2183.57  2199.61  2205.98  2206.99  2210.09
                             2359.68  2390.50  4312.10  4332.97  4339.51
                             4343.51  4344.09  4361.64  4364.70  4377.14
                             4398.44  4417.78  4444.91  4449.07  4455.63
                             4486.04  4509.35  4514.59  4517.08  4524.80
                             4529.16  4658.36  4662.13  4669.32

 Zero-point correction=                           0.410667 (Hartree/Particle)
 Thermal correction to Energy=                    0.444321
 Thermal correction to Enthalpy=                  0.445265
 Thermal correction to Gibbs Free Energy=         0.340914
 Sum of electronic and zero-point Energies=          -2297.100658
 Sum of electronic and thermal Energies=             -2297.067003
 Sum of electronic and thermal Enthalpies=           -2297.066059
 Sum of electronic and thermal Free Energies=        -2297.170410

                     E (Thermal)             CV                S
                      KCal/Mol        Cal/Mol-Kelvin    Cal/Mol-Kelvin
 Total                  278.816            121.246            219.625
 Electronic               0.000              0.000              0.000
 Translational            0.889              2.981             44.587
 Rotational               0.889              2.981             37.127
 Vibrational            277.038            115.284            137.912
 Vibration     1          0.593              1.987              7.767
 Vibration     2          0.593              1.986              6.995
 Vibration     3          0.593              1.986              6.750
 Vibration     4          0.593              1.984              6.052
 Vibration     5          0.594              1.982              5.356
 Vibration     6          0.595              1.980              5.102
 Vibration     7          0.595              1.977              4.805
 Vibration     8          0.596              1.975              4.583
 Vibration     9          0.598              1.970              4.263
 Vibration    10          0.599              1.967              4.081
 Vibration    11          0.599              1.965              3.973
 Vibration    12          0.601              1.960              3.788
 Vibration    13          0.602              1.956              3.665
 Vibration    14          0.604              1.949              3.461
 Vibration    15          0.604              1.948              3.415
 Vibration    16          0.607              1.938              3.204
 Vibration    17          0.609              1.934              3.124
 Vibration    18          0.618              1.904              2.683
 Vibration    19          0.621              1.895              2.583
 Vibration    20          0.624              1.885              2.485
 Vibration    21          0.625              1.879              2.436
 Vibration    22          0.629              1.867              2.327
 Vibration    23          0.633              1.854              2.233
 Vibration    24          0.636              1.844              2.161
 Vibration    25          0.640              1.832              2.086
 Vibration    26          0.651              1.800              1.902
 Vibration    27          0.655              1.785              1.830
 Vibration    28          0.659              1.773              1.774
 Vibration    29          0.665              1.755              1.697
 Vibration    30          0.667              1.749              1.674
 Vibration    31          0.680              1.710              1.532
 Vibration    32          0.684              1.699              1.496
 Vibration    33          0.686              1.693              1.477
 Vibration    34          0.687              1.690              1.466
 Vibration    35          0.700              1.653              1.356
 Vibration    36          0.708              1.630              1.297
 Vibration    37          0.720              1.594              1.208
 Vibration    38          0.727              1.575              1.165
 Vibration    39          0.733              1.559              1.131
 Vibration    40          0.738              1.545              1.101
 Vibration    41          0.774              1.449              0.928
 Vibration    42          0.780              1.433              0.901
 Vibration    43          0.802              1.378              0.820
 Vibration    44          0.809              1.361              0.796
 Vibration    45          0.818              1.338              0.765
 Vibration    46          0.825              1.321              0.743
 Vibration    47          0.848              1.267              0.677
 Vibration    48          0.853              1.255              0.664
 Vibration    49          0.876              1.203              0.607
 Vibration    50          0.882              1.190              0.594
 Vibration    51          0.893              1.165              0.569
 Vibration    52          0.920              1.109              0.515
 Vibration    53          0.922              1.104              0.512
 Vibration    54          0.934              1.080              0.490
 Vibration    55          0.958              1.033              0.451
 Vibration    56          0.969              1.011              0.433

                           ! Non-Optimized Parameters !
 Normal termination of Gaussian 16 at Wed Jun  5 16:25:26 2019.
