 Gaussian 16, Revision A.03,
 Gaussian 16:  AS64L-G16RevA.03 25-Dec-2016

 ----------------------------------------------------------------------
 #p opt freq=noraman pop=none 6-31g* scrf=(pcm,solvent=tetrahydrofuran)
  mpw1pbe
 ----------------------------------------------------------------------

 -----
 title
 -----
 Symbolic Z-matrix:
 Charge =  0 Multiplicity = 1

 SCF Done:  E(RmPW1PBE) =  -2296.98216260     A.U. after   13 cycles
 Optimization completed.
    -- Stationary point found.
 Normal termination of Gaussian 16 at Wed Jun  5 18:22:56 2019.

 ----------------------------------------------------------------------
 #P Geom=AllCheck Guess=TCheck SCRF=Check GenChk RmPW1PBE/6-31G(d) Freq
 ----------------------------------------------------------------------

 Structure from the checkpoint file:  "/scratch/users/ekwan/clay_new-glu_gluC6-bisCF3-sm-mpw1pbe-631gd-pcm_thf/Gau-5812.chk"
 -----
 title
 -----
 Charge =  0 Multiplicity = 1

                         Standard orientation:
 ---------------------------------------------------------------------
 Center     Atomic      Atomic             Coordinates (Angstroms)
 Number     Number       Type             X           Y           Z
 ---------------------------------------------------------------------
      1          6           0        3.513686   -0.226539    0.713929
      2          6           0        3.341212   -0.490010   -0.779712
      3          6           0        1.867905   -0.372731   -1.192338
      4          6           0        1.364200    1.092067    0.614841
      5          6           0        2.813390    1.072910    1.100555
      6          1           0        1.744677   -0.427578   -2.274218
      7          1           0        3.872854    0.305808   -1.325398
      8          1           0        3.059595   -1.050481    1.281839
      9          1           0        0.800475    0.321525    1.158861
     10          1           0        3.345233    1.913389    0.636432
     11          8           0        1.291727    0.816781   -0.791897
     12          8           0        1.189007   -1.511070   -0.603014
     13          8           0        3.884044   -1.743726   -1.088524
     14          8           0        4.878973   -0.097244    1.042025
     15          8           0        2.789071    1.212430    2.504205
     16          6           0        0.681674    2.426642    0.875153
     17          1           0        0.577327    2.526523    1.958795
     18          1           0       -0.323136    2.409567    0.431435
     19          8           0        1.401146    3.554489    0.438939
     20         16           0       -0.099313   -2.139324   -1.355604
     21          8           0       -0.191930   -3.494868   -0.853487
     22          8           0        0.008293   -1.862172   -2.779086
     23          6           0       -1.464722   -1.205739   -0.705277
     24          6           0       -2.118031   -1.672332    0.428984
     25          6           0       -1.849715   -0.034072   -1.346458
     26          6           0       -3.184647   -0.934763    0.933425
     27          1           0       -1.803559   -2.596170    0.900469
     28          6           0       -2.911455    0.692891   -0.819582
     29          1           0       -1.336037    0.299777   -2.239816
     30          6           0       -3.581131    0.247786    0.316798
     31          1           0       -4.410943    0.818327    0.717433
     32          6           0        4.207740   -1.922999   -2.452789
     33          1           0        3.315535   -1.970410   -3.089880
     34          1           0        4.862312   -1.119235   -2.815370
     35          1           0        4.736479   -2.874620   -2.526246
     36          6           0        5.468555   -1.265733    1.576316
     37          1           0        6.507794   -1.016072    1.801422
     38          1           0        4.969049   -1.572899    2.505165
     39          1           0        5.440925   -2.095238    0.863050
     40          6           0        3.686191    2.183821    3.005628
     41          1           0        3.563788    2.192866    4.090988
     42          1           0        4.723400    1.932541    2.760418
     43          1           0        3.451702    3.181091    2.611387
     44          6           0        1.212163    3.887872   -0.921419
     45          1           0        1.657716    4.874354   -1.068427
     46          1           0        0.143196    3.939532   -1.170069
     47          1           0        1.693210    3.171113   -1.595105
     48          6           0       -3.951023   -1.452730    2.120916
     49          9           0       -3.165783   -2.166030    2.939410
     50          9           0       -4.958403   -2.253213    1.737753
     51          9           0       -4.487607   -0.452728    2.834023
     52          6           0       -3.298728    2.001923   -1.451543
     53          9           0       -2.608401    3.023861   -0.909124
     54          9           0       -4.598740    2.271102   -1.277999
     55          9           0       -3.046491    2.010223   -2.766436
 ---------------------------------------------------------------------

 SCF Done:  E(RmPW1PBE) =  -2296.98216260     A.U. after    1 cycles

 Isotropic polarizability for W=    0.000000      271.68 Bohr**3.
 End of Minotr F.D. properties file   721 does not exist.

                      1                      2                      3
                      A                      A                      A
 Frequencies --     13.0366                16.3238                21.1837
 Red. masses --      9.7354                 6.2111                17.2960
 Frc consts  --      0.0010                 0.0010                 0.0046
 IR Inten    --      0.0586                 0.3390                 0.0065

                      4                      5                      6
                      A                      A                      A
 Frequencies --     23.4783                33.5044                36.7895
 Red. masses --     11.5047                 4.1805                 5.0896
 Frc consts  --      0.0037                 0.0028                 0.0041
 IR Inten    --      0.0156                 0.8911                 0.7543

                      7                      8                      9
                      A                      A                      A
 Frequencies --     44.9899                49.0642                52.1217
 Red. masses --      4.1336                 3.1871                 4.6600
 Frc consts  --      0.0049                 0.0045                 0.0075
 IR Inten    --      1.6621                 2.2782                 0.4655

                     10                     11                     12
                      A                      A                      A
 Frequencies --     61.3482                68.7804                77.9583
 Red. masses --      3.0943                 3.9480                 3.3292
 Frc consts  --      0.0069                 0.0110                 0.0119
 IR Inten    --      8.8580                 0.4414                 0.7623

                     13                     14                     15
                      A                      A                      A
 Frequencies --     82.8796                99.6582               100.7162
 Red. masses --      2.7385                 9.9553                 7.2492
 Frc consts  --      0.0111                 0.0583                 0.0433
 IR Inten    --      5.3076                 2.3242                 4.3450

                     16                     17                     18
                      A                      A                      A
 Frequencies --    106.9518               115.9316               150.0733
 Red. masses --      2.6453                 7.2357                 7.4689
 Frc consts  --      0.0178                 0.0573                 0.0991
 IR Inten    --      2.5909                 1.8958                 0.1325

                     19                     20                     21
                      A                      A                      A
 Frequencies --    153.3808               161.2320               168.5227
 Red. masses --      1.3889                 1.9045                 2.4614
 Frc consts  --      0.0193                 0.0292                 0.0412
 IR Inten    --      0.1155                 0.6370                 0.7416

                     22                     23                     24
                      A                      A                      A
 Frequencies --    178.5888               184.5570               191.8234
 Red. masses --      1.6998                 3.0151                 2.0850
 Frc consts  --      0.0319                 0.0605                 0.0452
 IR Inten    --      2.5819                 4.2571                 1.7199

                     25                     26                     27
                      A                      A                      A
 Frequencies --    196.4843               224.0682               236.2902
 Red. masses --      1.9347                 3.1389                12.0149
 Frc consts  --      0.0440                 0.0928                 0.3952
 IR Inten    --      0.1382                12.2707                 0.1040

                     28                     29                     30
                      A                      A                      A
 Frequencies --    245.0723               254.8921               259.0930
 Red. masses --      3.7784                 3.6235                 6.8378
 Frc consts  --      0.1337                 0.1387                 0.2704
 IR Inten    --      7.1169                 9.5414                10.5114

                     31                     32                     33
                      A                      A                      A
 Frequencies --    282.7701               286.5753               291.8367
 Red. masses --     10.7475                 4.8793                 9.4103
 Frc consts  --      0.5063                 0.2361                 0.4722
 IR Inten    --      3.2876                 8.1581                 8.0585

                     34                     35                     36
                      A                      A                      A
 Frequencies --    294.4237               313.4601               323.8850
 Red. masses --      8.8775                 5.4465                 4.0916
 Frc consts  --      0.4534                 0.3153                 0.2529
 IR Inten    --      8.1928                 0.1660                 5.0596

                     37                     38                     39
                      A                      A                      A
 Frequencies --    344.9372               353.7190               358.9074
 Red. masses --      7.0705                 6.2823                 5.0067
 Frc consts  --      0.4957                 0.4631                 0.3800
 IR Inten    --      0.6376                 2.5430                 6.5306

                     40                     41                     42
                      A                      A                      A
 Frequencies --    369.2944               414.3588               421.9290
 Red. masses --      9.4343                10.0504                 8.6763
 Frc consts  --      0.7581                 1.0167                 0.9100
 IR Inten    --     14.0140                14.4726                 5.9619

                     43                     44                     45
                      A                      A                      A
 Frequencies --    440.9388               454.8503               466.2109
 Red. masses --      2.0952                 5.3867                 8.5330
 Frc consts  --      0.2400                 0.6566                 1.0927
 IR Inten    --      6.3618                11.8593                13.3980

                     46                     47                     48
                      A                      A                      A
 Frequencies --    473.3110               497.5734               503.3299
 Red. masses --      4.2238                 7.6159                11.9460
 Frc consts  --      0.5575                 1.1109                 1.7831
 IR Inten    --      9.4205                19.5746                 0.7935

                     49                     50                     51
                      A                      A                      A
 Frequencies --    526.2417               534.3404               543.9163
 Red. masses --      4.6682                10.9674                 4.8164
 Frc consts  --      0.7617                 1.8450                 0.8395
 IR Inten    --     37.2516                32.5357                11.3306

                     52                     53                     54
                      A                      A                      A
 Frequencies --    570.9856               573.6911               585.4208
 Red. masses --      3.7561                15.3147                11.7399
 Frc consts  --      0.7215                 2.9697                 2.3706
 IR Inten    --     37.3209                17.6337               274.7298

                     55                     56                     57
                      A                      A                      A
 Frequencies --    608.9087               617.5354               635.6867
 Red. masses --      6.8339                 8.1312                 5.6802
 Frc consts  --      1.4929                 1.8269                 1.3524
 IR Inten    --     41.4617                 2.3526                 9.6026

                     58                     59                     60
                      A                      A                      A
 Frequencies --    680.3761               685.1796               691.6462
 Red. masses --      7.6334                12.6881                 5.8159
 Frc consts  --      2.0819                 3.5096                 1.6392
 IR Inten    --      0.9595                61.0061                31.4086

                     61                     62                     63
                      A                      A                      A
 Frequencies --    711.8789               725.2046               740.2050
 Red. masses --      2.5594                 8.9265                 5.8346
 Frc consts  --      0.7642                 2.7660                 1.8835
 IR Inten    --     30.5914                 7.0352                60.0748

                     64                     65                     66
                      A                      A                      A
 Frequencies --    830.7493               853.2988               860.0200
 Red. masses --      7.0011                 3.7884                10.9653
 Frc consts  --      2.8468                 1.6252                 4.7785
 IR Inten    --    291.9509                21.6157               379.6096

                     67                     68                     69
                      A                      A                      A
 Frequencies --    871.2293               898.2674               919.4612
 Red. masses --     11.9506                 3.8088                 1.5963
 Frc consts  --      5.3445                 1.8107                 0.7951
 IR Inten    --     21.5774                76.5347                79.8246

                     70                     71                     72
                      A                      A                      A
 Frequencies --    944.8695               950.8179               964.5807
 Red. masses --      2.6586                 1.4104                 1.3722
 Frc consts  --      1.3985                 0.7512                 0.7522
 IR Inten    --     20.8684                 3.7067                 8.1094

                     73                     74                     75
                      A                      A                      A
 Frequencies --    990.7274               998.4648              1018.4957
 Red. masses --      4.6743                 4.0788                 6.3600
 Frc consts  --      2.7032                 2.3958                 3.8871
 IR Inten    --     12.9273                47.6623                 4.1160

                     76                     77                     78
                      A                      A                      A
 Frequencies --   1031.5238              1046.9125              1061.0084
 Red. masses --      3.9623                 3.9584                 3.6925
 Frc consts  --      2.4840                 2.5562                 2.4491
 IR Inten    --     48.5790                10.3504               133.8473

                     79                     80                     81
                      A                      A                      A
 Frequencies --   1102.6731              1131.7123              1134.7063
 Red. masses --      2.9430                 8.0285                 2.7891
 Frc consts  --      2.1083                 6.0584                 2.1159
 IR Inten    --     15.9104                51.3777                99.0360

                     82                     83                     84
                      A                      A                      A
 Frequencies --   1143.1134              1145.5512              1146.2080
 Red. masses --      2.1313                 2.1804                 1.9366
 Frc consts  --      1.6408                 1.6859                 1.4991
 IR Inten    --     87.1066                12.9171                17.7499

                     85                     86                     87
                      A                      A                      A
 Frequencies --   1156.9354              1178.4899              1181.6571
 Red. masses --      2.6013                 3.4360                 5.2570
 Frc consts  --      2.0514                 2.8116                 4.3249
 IR Inten    --    188.1540                35.3814               385.0938

                     88                     89                     90
                      A                      A                      A
 Frequencies --   1183.8116              1188.1564              1189.9077
 Red. masses --      3.0450                 1.3511                 1.2886
 Frc consts  --      2.5142                 1.1238                 1.0750
 IR Inten    --    363.7085                11.0774                 5.2694

                     91                     92                     93
                      A                      A                      A
 Frequencies --   1192.4871              1195.0265              1198.4832
 Red. masses --      1.3761                 1.3117                 7.5092
 Frc consts  --      1.1529                 1.1037                 6.3549
 IR Inten    --      4.3826                15.0574               377.6234

                     94                     95                     96
                      A                      A                      A
 Frequencies --   1201.6066              1210.3047              1212.4780
 Red. masses --      2.1718                 3.1593                12.1816
 Frc consts  --      1.8476                 2.7267                10.5512
 IR Inten    --     72.5220               105.5722               344.1562

                     97                     98                     99
                      A                      A                      A
 Frequencies --   1221.4101              1223.1928              1233.5026
 Red. masses --      4.4105                 1.6950                 1.6659
 Frc consts  --      3.8767                 1.4942                 1.4934
 IR Inten    --    167.0038               155.0807                35.3254

                    100                    101                    102
                      A                      A                      A
 Frequencies --   1239.0568              1244.0792              1245.3360
 Red. masses --      7.9273                 7.3705                 1.9154
 Frc consts  --      7.1706                 6.7211                 1.7502
 IR Inten    --    168.0513               292.7972                 6.5995

                    103                    104                    105
                      A                      A                      A
 Frequencies --   1249.0120              1274.3239              1303.9994
 Red. masses --      2.0501                 1.8501                 2.5557
 Frc consts  --      1.8843                 1.7701                 2.5604
 IR Inten    --     76.7260                10.5912               630.0276

                    106                    107                    108
                      A                      A                      A
 Frequencies --   1311.4124              1314.5279              1349.2222
 Red. masses --      1.4899                 1.5359                 1.3146
 Frc consts  --      1.5097                 1.5637                 1.4099
 IR Inten    --      5.3253               184.7963                 4.9739

                    109                    110                    111
                      A                      A                      A
 Frequencies --   1354.0225              1374.1232              1378.0357
 Red. masses --      1.3586                 2.9266                 1.2463
 Frc consts  --      1.4675                 3.2559                 1.3944
 IR Inten    --     11.3303               198.4113                14.1330

                    112                    113                    114
                      A                      A                      A
 Frequencies --   1380.6618              1396.5997              1399.6662
 Red. masses --      1.6670                 6.3867                 1.4247
 Frc consts  --      1.8722                 7.3395                 1.6444
 IR Inten    --    100.6501               183.2662                 1.4579

                    115                    116                    117
                      A                      A                      A
 Frequencies --   1403.6959              1411.8444              1422.5955
 Red. masses --      4.4052                 1.5830                 1.3254
 Frc consts  --      5.1140                 1.8591                 1.5804
 IR Inten    --      1.8363                24.6157                 7.7089

                    118                    119                    120
                      A                      A                      A
 Frequencies --   1434.8541              1439.7428              1452.3500
 Red. masses --      1.4731                 1.3270                 1.3833
 Frc consts  --      1.7869                 1.6207                 1.7192
 IR Inten    --     37.0077                10.8722                13.3179

                    121                    122                    123
                      A                      A                      A
 Frequencies --   1491.1364              1498.4491              1500.2980
 Red. masses --      1.0896                 1.1762                 1.1709
 Frc consts  --      1.4274                 1.5560                 1.5529
 IR Inten    --      3.3975                 0.6145                 1.1945

                    124                    125                    126
                      A                      A                      A
 Frequencies --   1503.9027              1504.7113              1511.4519
 Red. masses --      1.1248                 4.0210                 1.0583
 Frc consts  --      1.4988                 5.3641                 1.4244
 IR Inten    --      7.0191                 2.6189                12.0939

                    127                    128                    129
                      A                      A                      A
 Frequencies --   1511.4765              1513.1299              1514.3244
 Red. masses --      1.0587                 1.0563                 4.3521
 Frc consts  --      1.4250                 1.4249                 5.8802
 IR Inten    --      6.9823                 2.4075                 0.0857

                    130                    131                    132
                      A                      A                      A
 Frequencies --   1517.5647              1522.6070              1532.1363
 Red. masses --      1.1285                 1.0844                 1.0553
 Frc consts  --      1.5312                 1.4813                 1.4595
 IR Inten    --      1.4830                 4.9030                13.7631

                    133                    134                    135
                      A                      A                      A
 Frequencies --   1537.6506              1538.4650              1539.8971
 Red. masses --      1.0497                 1.0486                 1.0571
 Frc consts  --      1.4622                 1.4623                 1.4769
 IR Inten    --     10.1273                 7.8632                11.2204

                    136                    137                    138
                      A                      A                      A
 Frequencies --   1677.1507              1697.7321              3031.6400
 Red. masses --      6.6438                 6.3732                 1.0815
 Frc consts  --     11.0106                10.8230                 5.8563
 IR Inten    --     20.2015                23.9145                25.3594

                    139                    140                    141
                      A                      A                      A
 Frequencies --   3042.7685              3045.9944              3046.2257
 Red. masses --      1.0360                 1.0379                 1.0375
 Frc consts  --      5.6512                 5.6735                 5.6722
 IR Inten    --     75.9640               118.1347                 8.1191

                    142                    143                    144
                      A                      A                      A
 Frequencies --   3050.5519              3061.0679              3064.3089
 Red. masses --      1.0349                 1.0732                 1.0830
 Frc consts  --      5.6742                 5.9248                 5.9915
 IR Inten    --     67.2256                12.0937                19.7591

                    145                    146                    147
                      A                      A                      A
 Frequencies --   3070.6619              3085.6800              3107.6378
 Red. masses --      1.0755                 1.0849                 1.1060
 Frc consts  --      5.9751                 6.0863                 6.2932
 IR Inten    --     40.3820                63.1392                60.4118

                    148                    149                    150
                      A                      A                      A
 Frequencies --   3123.5182              3128.3712              3129.1503
 Red. masses --      1.0994                 1.1024                 1.0976
 Frc consts  --      6.3198                 6.3569                 6.3322
 IR Inten    --     46.4838                58.8158                38.9579

                    151                    152                    153
                      A                      A                      A
 Frequencies --   3150.4844              3169.2128              3172.4241
 Red. masses --      1.0993                 1.1038                 1.1038
 Frc consts  --      6.4285                 6.5317                 6.5449
 IR Inten    --     19.5428                43.0892                37.5551

                    154                    155                    156
                      A                      A                      A
 Frequencies --   3173.3399              3173.5785              3181.4625
 Red. masses --      1.0883                 1.1045                 1.1001
 Frc consts  --      6.4571                 6.5541                 6.5607
 IR Inten    --     10.0703                35.5306                27.1145

                    157                    158                    159
                      A                      A                      A
 Frequencies --   3264.8636              3267.1371              3272.1048
 Red. masses --      1.0924                 1.0924                 1.0924
 Frc consts  --      6.8608                 6.8701                 6.8908
 IR Inten    --      1.5288                 7.2362                 5.6551

 - Thermochemistry -
 -------------------
 Temperature   298.150 Kelvin.  Pressure   1.00000 Atm.
 Atom     1 has atomic number  6 and mass  12.00000

 Molecular mass:   512.09396 amu.
 Principal axes and moments of inertia in atomic units:
                           1         2         3
     Eigenvalues --  ******************************
           X            0.99995  -0.00048   0.01046
           Y           -0.00042   0.99630   0.08600
           Z           -0.01046  -0.08599   0.99624
 This molecule is an asymmetric top.
 Rotational symmetry number  1.
 Warning -- assumption of classical behavior for rotation
           may cause significant error
 Rotational temperatures (Kelvin)      0.00727     0.00387     0.00358
 Rotational constants (GHZ):           0.15156     0.08068     0.07459
 Zero-point vibrational energy    1090082.7 (Joules/Mol)
                                  260.53601 (Kcal/Mol)
 Warning -- explicit consideration of  56 degrees of freedom as
           vibrations may cause significant error
 Vibrational temperatures:     18.76    23.49    30.48    33.78    48.21
          (Kelvin)             52.93    64.73    70.59    74.99    88.27
                               98.96   112.16   119.25   143.39   144.91
                              153.88   166.80   215.92   220.68   231.98
                              242.47   256.95   265.54   275.99   282.70
                              322.38   339.97   352.60   366.73   372.78
                              406.84   412.32   419.89   423.61   451.00
                              466.00   496.29   508.92   516.39   531.33
                              596.17   607.06   634.41   654.43   670.77
                              680.99   715.90   724.18   757.14   768.80
                              782.57   821.52   825.41   842.29   876.08
                              888.50   914.61   978.91   985.82   995.12
                             1024.24  1043.41  1064.99  1195.26  1227.71
                             1237.38  1253.50  1292.41  1322.90  1359.46
                             1368.01  1387.82  1425.44  1436.57  1465.39
                             1484.13  1506.27  1526.55  1586.50  1628.28
                             1632.59  1644.69  1648.19  1649.14  1664.57
                             1695.58  1700.14  1703.24  1709.49  1712.01
                             1715.72  1719.38  1724.35  1728.84  1741.36
                             1744.49  1757.34  1759.90  1774.74  1782.73
                             1789.95  1791.76  1797.05  1833.47  1876.16
                             1886.83  1891.31  1941.23  1948.14  1977.06
                             1982.69  1986.46  2009.40  2013.81  2019.61
                             2031.33  2046.80  2064.44  2071.47  2089.61
                             2145.41  2155.93  2158.59  2163.78  2164.94
                             2174.64  2174.68  2177.06  2178.78  2183.44
                             2190.69  2204.40  2212.34  2213.51  2215.57
                             2413.05  2442.66  4361.85  4377.87  4382.51
                             4382.84  4389.06  4404.19  4408.86  4418.00
                             4439.61  4471.20  4494.05  4501.03  4502.15
                             4532.84  4559.79  4564.41  4565.73  4566.07
                             4577.41  4697.41  4700.68  4707.83

 Zero-point correction=                           0.415191 (Hartree/Particle)
 Thermal correction to Energy=                    0.448829
 Thermal correction to Enthalpy=                  0.449774
 Thermal correction to Gibbs Free Energy=         0.344488
 Sum of electronic and zero-point Energies=          -2296.566972
 Sum of electronic and thermal Energies=             -2296.533333
 Sum of electronic and thermal Enthalpies=           -2296.532389
 Sum of electronic and thermal Free Energies=        -2296.637675

                     E (Thermal)             CV                S
                      KCal/Mol        Cal/Mol-Kelvin    Cal/Mol-Kelvin
 Total                  281.645            120.064            221.593
 Electronic               0.000              0.000              0.000
 Translational            0.889              2.981             44.587
 Rotational               0.889              2.981             37.109
 Vibrational            279.867            114.102            139.897
 Vibration     1          0.593              1.987              7.484
 Vibration     2          0.593              1.986              7.038
 Vibration     3          0.593              1.985              6.520
 Vibration     4          0.593              1.985              6.316
 Vibration     5          0.594              1.983              5.610
 Vibration     6          0.594              1.982              5.425
 Vibration     7          0.595              1.979              5.026
 Vibration     8          0.595              1.978              4.855
 Vibration     9          0.596              1.977              4.735
 Vibration    10          0.597              1.973              4.413
 Vibration    11          0.598              1.969              4.188
 Vibration    12          0.599              1.964              3.942
 Vibration    13          0.600              1.961              3.821
 Vibration    14          0.604              1.949              3.461
 Vibration    15          0.604              1.949              3.440
 Vibration    16          0.606              1.944              3.324
 Vibration    17          0.608              1.936              3.167
 Vibration    18          0.618              1.903              2.671
 Vibration    19          0.619              1.899              2.630
 Vibration    20          0.622              1.890              2.535
 Vibration    21          0.625              1.881              2.452
 Vibration    22          0.629              1.869              2.343
 Vibration    23          0.631              1.861              2.282
 Vibration    24          0.634              1.851              2.210
 Vibration    25          0.636              1.845              2.166
 Vibration    26          0.649              1.804              1.926
 Vibration    27          0.655              1.785              1.831
 Vibration    28          0.660              1.771              1.766
 Vibration    29          0.665              1.755              1.696
 Vibration    30          0.668              1.747              1.668
 Vibration    31          0.682              1.706              1.517
 Vibration    32          0.684              1.699              1.494
 Vibration    33          0.687              1.689              1.463
 Vibration    34          0.689              1.684              1.448
 Vibration    35          0.701              1.648              1.344
 Vibration    36          0.708              1.628              1.290
 Vibration    37          0.723              1.586              1.189
 Vibration    38          0.730              1.568              1.150
 Vibration    39          0.734              1.557              1.127
 Vibration    40          0.742              1.535              1.083
 Vibration    41          0.778              1.439              0.911
 Vibration    42          0.784              1.423              0.885
 Vibration    43          0.801              1.381              0.824
 Vibration    44          0.813              1.350              0.781
 Vibration    45          0.824              1.325              0.748
 Vibration    46          0.830              1.309              0.728
 Vibration    47          0.853              1.255              0.664
 Vibration    48          0.859              1.243              0.650
 Vibration    49          0.881              1.192              0.596
 Vibration    50          0.889              1.174              0.578
 Vibration    51          0.899              1.153              0.557
 Vibration    52          0.927              1.094              0.502
 Vibration    53          0.930              1.088              0.497
 Vibration    54          0.942              1.063              0.475
 Vibration    55          0.968              1.013              0.435
 Vibration    56          0.977              0.995              0.420

                           ! Non-Optimized Parameters !
 Normal termination of Gaussian 16 at Wed Jun  5 19:05:05 2019.
