 Gaussian 16, Revision A.03,
 Gaussian 16:  AS64L-G16RevA.03 25-Dec-2016

 ----------------------------------------------------------------------
 #p opt freq=noraman pop=none 6-31g* scrf=(pcm,solvent=tetrahydrofuran)
  cam-b3lyp empiricaldispersion=gd3bj
 ----------------------------------------------------------------------

 -----
 title
 -----
 Symbolic Z-matrix:
 Charge =  0 Multiplicity = 1

 SCF Done:  E(RCAM-B3LYP) =  -2297.44235933     A.U. after   13 cycles
 Optimization completed.
    -- Stationary point found.
 Normal termination of Gaussian 16 at Wed Jun  5 17:26:11 2019.

 ----------------------------------------------------------------------
 #P Geom=AllCheck Guess=TCheck SCRF=Check GenChk RCAM-B3LYP/6-31G(d) Fr
 eq
 ----------------------------------------------------------------------

 Structure from the checkpoint file:  "/scratch/users/ekwan/clay_new-glu_gluC6-bisCF3-sm-cam_b3lyp_d3bj-631gd-pcm_thf/Gau-18275.chk"
 -----
 title
 -----
 Charge =  0 Multiplicity = 1

                         Standard orientation:
 ---------------------------------------------------------------------
 Center     Atomic      Atomic             Coordinates (Angstroms)
 Number     Number       Type             X           Y           Z
 ---------------------------------------------------------------------
      1          6           0        3.393876    0.160931    0.703665
      2          6           0        3.312412   -0.392250   -0.715095
      3          6           0        1.855696   -0.563827   -1.156007
      4          6           0        1.077441    1.095434    0.369093
      5          6           0        2.496221    1.382116    0.849459
      6          1           0        1.773960   -0.820358   -2.210991
      7          1           0        3.754661    0.348953   -1.398236
      8          1           0        3.055190   -0.609355    1.408594
      9          1           0        0.619021    0.350840    1.032014
     10          1           0        2.907624    2.198086    0.244587
     11          8           0        1.096742    0.577490   -0.971426
     12          8           0        1.333589   -1.672160   -0.379161
     13          8           0        4.030495   -1.595262   -0.764816
     14          8           0        4.712002    0.560664    1.008744
     15          8           0        2.410665    1.764101    2.205387
     16          6           0        0.202520    2.338011    0.388624
     17          1           0        0.024580    2.592763    1.435430
     18          1           0       -0.760395    2.111729   -0.084949
     19          8           0        0.790473    3.474492   -0.201312
     20         16           0        0.057466   -2.481239   -0.949100
     21          8           0        0.020582   -3.701569   -0.172261
     22          8           0        0.134773   -2.506949   -2.399871
     23          6           0       -1.312187   -1.459538   -0.474179
     24          6           0       -1.831550   -1.587975    0.805395
     25          6           0       -1.803223   -0.528443   -1.377643
     26          6           0       -2.872991   -0.751376    1.185372
     27          1           0       -1.432845   -2.327271    1.489579
     28          6           0       -2.840005    0.300253   -0.974593
     29          1           0       -1.382358   -0.451853   -2.371944
     30          6           0       -3.377532    0.194477    0.302770
     31          1           0       -4.186416    0.847287    0.608747
     32          6           0        4.256301   -2.095634   -2.068948
     33          1           0        3.337343   -2.485786   -2.523429
     34          1           0        4.679015   -1.321841   -2.722967
     35          1           0        4.971367   -2.913485   -1.972855
     36          6           0        5.476705   -0.404161    1.708400
     37          1           0        6.449007    0.050816    1.907063
     38          1           0        5.002581   -0.662542    2.664362
     39          1           0        5.611491   -1.313874    1.116932
     40          6           0        3.151350    2.928030    2.526652
     41          1           0        2.992468    3.119380    3.589694
     42          1           0        4.219151    2.779659    2.338301
     43          1           0        2.795117    3.789692    1.948440
     44          6           0        0.719365    3.511541   -1.615791
     45          1           0        1.000326    4.521985   -1.919457
     46          1           0       -0.300791    3.302200   -1.961064
     47          1           0        1.399861    2.791006   -2.079892
     48          6           0       -3.492570   -0.905721    2.545051
     49          9           0       -2.608919   -1.376041    3.437145
     50          9           0       -4.525692   -1.763296    2.518205
     51          9           0       -3.960903    0.263980    3.005458
     52          6           0       -3.335918    1.374573   -1.897948
     53          9           0       -2.707530    2.545536   -1.661289
     54          9           0       -4.646781    1.599479   -1.736745
     55          9           0       -3.121225    1.065531   -3.182805
 ---------------------------------------------------------------------

 SCF Done:  E(RCAM-B3LYP) =  -2297.44235933     A.U. after    1 cycles

 Isotropic polarizability for W=    0.000000      265.17 Bohr**3.
 End of Minotr F.D. properties file   721 does not exist.

                      1                      2                      3
                      A                      A                      A
 Frequencies --     12.4583                15.7277                21.0028
 Red. masses --     10.1128                 8.4691                17.3735
 Frc consts  --      0.0009                 0.0012                 0.0045
 IR Inten    --      0.1634                 0.1113                 0.0206

                      4                      5                      6
                      A                      A                      A
 Frequencies --     23.5733                32.7389                44.2202
 Red. masses --      8.0304                 4.3310                 5.2997
 Frc consts  --      0.0026                 0.0027                 0.0061
 IR Inten    --      0.2304                 0.1736                 1.7568

                      7                      8                      9
                      A                      A                      A
 Frequencies --     47.8649                55.4567                67.3171
 Red. masses --      3.7985                 4.3629                 3.6700
 Frc consts  --      0.0051                 0.0079                 0.0098
 IR Inten    --      0.6978                 1.9859                 4.0042

                     10                     11                     12
                      A                      A                      A
 Frequencies --     70.8592                76.0376                85.5875
 Red. masses --      3.0700                 3.3520                 3.2974
 Frc consts  --      0.0091                 0.0114                 0.0142
 IR Inten    --      1.4300                 5.5083                 3.3265

                     13                     14                     15
                      A                      A                      A
 Frequencies --     95.1132               102.9250               105.3566
 Red. masses --      4.2737                 9.9179                 6.3711
 Frc consts  --      0.0228                 0.0619                 0.0417
 IR Inten    --      3.0429                 3.8924                 3.0964

                     16                     17                     18
                      A                      A                      A
 Frequencies --    115.1956               126.2187               153.7591
 Red. masses --      6.6564                 2.4054                 7.6182
 Frc consts  --      0.0520                 0.0226                 0.1061
 IR Inten    --      0.9379                 3.5635                 0.3725

                     19                     20                     21
                      A                      A                      A
 Frequencies --    159.5209               170.8600               174.6670
 Red. masses --      1.3690                 3.5166                 3.0814
 Frc consts  --      0.0205                 0.0605                 0.0554
 IR Inten    --      0.8145                 0.5082                 1.6518

                     22                     23                     24
                      A                      A                      A
 Frequencies --    182.4407               193.3154               202.1700
 Red. masses --      1.6116                 2.1899                 2.3954
 Frc consts  --      0.0316                 0.0482                 0.0577
 IR Inten    --      0.8000                 2.5842                 8.0649

                     25                     26                     27
                      A                      A                      A
 Frequencies --    211.6778               231.6717               239.0979
 Red. masses --      1.6979                 2.1042                11.0989
 Frc consts  --      0.0448                 0.0665                 0.3738
 IR Inten    --      0.8793                 9.8065                 0.2946

                     28                     29                     30
                      A                      A                      A
 Frequencies --    249.8336               259.3847               265.4294
 Red. masses --      3.7020                 6.9128                 3.5567
 Frc consts  --      0.1361                 0.2740                 0.1476
 IR Inten    --      4.4611                 7.1215                11.4990

                     31                     32                     33
                      A                      A                      A
 Frequencies --    284.9116               292.0604               297.3026
 Red. masses --     11.9530                 4.8987                 9.8660
 Frc consts  --      0.5717                 0.2462                 0.5138
 IR Inten    --      4.0606                10.1994                 5.2495

                     34                     35                     36
                      A                      A                      A
 Frequencies --    299.4905               318.9866               330.4071
 Red. masses --      7.9095                 5.3548                 4.0210
 Frc consts  --      0.4180                 0.3210                 0.2586
 IR Inten    --     10.1963                 0.1269                 3.5183

                     37                     38                     39
                      A                      A                      A
 Frequencies --    348.1880               357.4028               364.5971
 Red. masses --      7.4796                 5.9850                 5.0181
 Frc consts  --      0.5343                 0.4504                 0.3930
 IR Inten    --      1.6822                 3.3220                 8.3048

                     40                     41                     42
                      A                      A                      A
 Frequencies --    376.0081               418.2350               429.2171
 Red. masses --      9.1927                10.1330                 8.9952
 Frc consts  --      0.7658                 1.0443                 0.9764
 IR Inten    --     16.3539                16.7910                 7.6655

                     43                     44                     45
                      A                      A                      A
 Frequencies --    443.9874               460.0368               473.2512
 Red. masses --      2.1364                 5.8214                 8.5265
 Frc consts  --      0.2481                 0.7259                 1.1251
 IR Inten    --      9.3000                 8.8619                17.3489

                     46                     47                     48
                      A                      A                      A
 Frequencies --    480.6949               500.4410               504.2090
 Red. masses --      4.0809                 8.0684                11.2087
 Frc consts  --      0.5556                 1.1905                 1.6789
 IR Inten    --      8.8150                13.2147                 3.7617

                     49                     50                     51
                      A                      A                      A
 Frequencies --    530.4372               537.9315               550.3690
 Red. masses --      5.2023                 7.3100                 5.3141
 Frc consts  --      0.8624                 1.2463                 0.9484
 IR Inten    --     47.1932                26.5800                 6.8707

                     52                     53                     54
                      A                      A                      A
 Frequencies --    575.0409               577.6265               592.9920
 Red. masses --     10.5866                 4.3065                10.6512
 Frc consts  --      2.0626                 0.8466                 2.2067
 IR Inten    --     20.0978                34.4579               251.1500

                     55                     56                     57
                      A                      A                      A
 Frequencies --    615.0038               621.3973               653.1582
 Red. masses --      6.5183                 7.9766                 5.5872
 Frc consts  --      1.4526                 1.8147                 1.4044
 IR Inten    --     37.4814                 4.4706                12.7256

                     58                     59                     60
                      A                      A                      A
 Frequencies --    686.9116               687.9026               699.4331
 Red. masses --      8.3633                11.3718                 5.8732
 Frc consts  --      2.3250                 3.1705                 1.6928
 IR Inten    --     10.6235                49.5214                25.5539

                     61                     62                     63
                      A                      A                      A
 Frequencies --    718.6504               728.3895               750.9924
 Red. masses --      2.4471                10.4197                 5.2713
 Frc consts  --      0.7446                 3.2571                 1.7516
 IR Inten    --     29.6176                 0.7797                46.2636

                     64                     65                     66
                      A                      A                      A
 Frequencies --    839.1581               860.3746               873.3390
 Red. masses --      5.8969                 4.1155                10.5031
 Frc consts  --      2.4466                 1.7949                 4.7199
 IR Inten    --    188.9693                30.6058               395.6574

                     67                     68                     69
                      A                      A                      A
 Frequencies --    877.4282               908.1985               939.1368
 Red. masses --     11.8470                 4.2884                 1.6463
 Frc consts  --      5.3738                 2.0841                 0.8555
 IR Inten    --     22.7726               136.4937                64.9316

                     70                     71                     72
                      A                      A                      A
 Frequencies --    949.7219               968.9094               974.3707
 Red. masses --      2.7138                 1.3972                 1.3744
 Frc consts  --      1.4422                 0.7728                 0.7688
 IR Inten    --     21.3282                 1.1086                 5.1745

                     73                     74                     75
                      A                      A                      A
 Frequencies --    995.0260              1000.8484              1031.4241
 Red. masses --      4.6394                 3.9834                 6.2466
 Frc consts  --      2.7063                 2.3509                 3.9153
 IR Inten    --     21.1757                36.3786                 4.7878

                     76                     77                     78
                      A                      A                      A
 Frequencies --   1039.1290              1049.2721              1067.5857
 Red. masses --      3.9722                 3.9260                 3.6063
 Frc consts  --      2.5271                 2.5467                 2.4217
 IR Inten    --     39.1467                14.6802               148.2321

                     79                     80                     81
                      A                      A                      A
 Frequencies --   1108.9179              1140.4131              1141.9199
 Red. masses --      2.8435                 4.8216                 2.7867
 Frc consts  --      2.0602                 3.6946                 2.1410
 IR Inten    --     15.0991                18.3680               102.3939

                     82                     83                     84
                      A                      A                      A
 Frequencies --   1148.4903              1151.3543              1154.8296
 Red. masses --      2.4930                 1.8182                 2.3383
 Frc consts  --      1.9374                 1.4201                 1.8373
 IR Inten    --     92.1111                26.0924                 6.8451

                     85                     86                     87
                      A                      A                      A
 Frequencies --   1162.8841              1184.6951              1186.9127
 Red. masses --      2.5910                 3.2245                 4.4858
 Frc consts  --      2.0644                 2.6664                 3.7233
 IR Inten    --    232.6717                28.4279               281.0905

                     88                     89                     90
                      A                      A                      A
 Frequencies --   1191.0168              1195.8276              1197.5624
 Red. masses --      3.0491                 1.3098                 1.2910
 Frc consts  --      2.5483                 1.1035                 1.0908
 IR Inten    --    436.4449                17.3632                 8.2053

                     91                     92                     93
                      A                      A                      A
 Frequencies --   1200.0309              1200.8562              1205.0719
 Red. masses --      1.4851                 6.4885                 1.3248
 Frc consts  --      1.2601                 5.5129                 1.1335
 IR Inten    --     29.9291               383.9023                15.5723

                     94                     95                     96
                      A                      A                      A
 Frequencies --   1210.1875              1218.3615              1219.3792
 Red. masses --      1.8167                 3.4349                11.6632
 Frc consts  --      1.5676                 3.0041                10.2175
 IR Inten    --    109.9863                83.1469               326.5951

                     97                     98                     99
                      A                      A                      A
 Frequencies --   1228.2624              1233.2857              1241.2417
 Red. masses --      3.8818                 1.7660                 7.5138
 Frc consts  --      3.4504                 1.5826                 6.8206
 IR Inten    --    105.7335               181.3516               127.0718

                    100                    101                    102
                      A                      A                      A
 Frequencies --   1243.0005              1249.4050              1255.5268
 Red. masses --      1.7008                 7.0967                 1.9411
 Frc consts  --      1.5483                 6.5270                 1.8029
 IR Inten    --     46.1652               297.1443                10.8671

                    103                    104                    105
                      A                      A                      A
 Frequencies --   1257.0325              1286.8363              1312.0741
 Red. masses --      2.0450                 1.8020                 1.7756
 Frc consts  --      1.9039                 1.7581                 1.8010
 IR Inten    --     72.2860                10.0366               182.6792

                    106                    107                    108
                      A                      A                      A
 Frequencies --   1321.5462              1323.4824              1355.7510
 Red. masses --      2.8449                 1.4592                 1.1996
 Frc consts  --      2.9274                 1.5060                 1.2991
 IR Inten    --    622.9251                 8.4309                13.0645

                    109                    110                    111
                      A                      A                      A
 Frequencies --   1367.3348              1370.2886              1385.4859
 Red. masses --      1.5127                 5.6081                 2.8226
 Frc consts  --      1.6663                 6.2043                 3.1923
 IR Inten    --      7.7270               165.4930                78.9563

                    112                    113                    114
                      A                      A                      A
 Frequencies --   1390.5109              1392.5654              1410.7677
 Red. masses --      1.4917                 1.2975                 1.3406
 Frc consts  --      1.6993                 1.4824                 1.5720
 IR Inten    --     66.2036                 9.5307                13.8902

                    115                    116                    117
                      A                      A                      A
 Frequencies --   1412.5900              1425.6510              1434.9128
 Red. masses --      5.7658                 1.5066                 1.3200
 Frc consts  --      6.7786                 1.8042                 1.6013
 IR Inten    --    153.0111                18.0337                 5.9657

                    118                    119                    120
                      A                      A                      A
 Frequencies --   1451.4027              1454.2258              1465.4048
 Red. masses --      1.5207                 1.3729                 1.4183
 Frc consts  --      1.8874                 1.7107                 1.7945
 IR Inten    --     29.0827                14.9587                10.5940

                    121                    122                    123
                      A                      A                      A
 Frequencies --   1500.8115              1506.1315              1508.4035
 Red. masses --      1.0958                 1.1806                 1.1671
 Frc consts  --      1.4542                 1.5778                 1.5646
 IR Inten    --      2.1052                 1.3037                 2.3537

                    124                    125                    126
                      A                      A                      A
 Frequencies --   1510.5581              1516.3436              1518.4463
 Red. masses --      1.1240                 1.0525                 4.0070
 Frc consts  --      1.5111                 1.4258                 5.4434
 IR Inten    --      6.3346                 2.6436                 4.2996

                    127                    128                    129
                      A                      A                      A
 Frequencies --   1518.8565              1520.7640              1526.1295
 Red. masses --      1.0735                 1.0581                 1.1297
 Frc consts  --      1.4591                 1.4418                 1.5502
 IR Inten    --      3.6142                 9.0402                 2.4542

                    130                    131                    132
                      A                      A                      A
 Frequencies --   1529.2972              1530.9458              1540.5998
 Red. masses --      4.3097                 1.1133                 1.0508
 Frc consts  --      5.9385                 1.5374                 1.4694
 IR Inten    --      0.1385                 4.9999                12.3611

                    133                    134                    135
                      A                      A                      A
 Frequencies --   1544.3241              1544.6394              1547.8426
 Red. masses --      1.0520                 1.0494                 1.0648
 Frc consts  --      1.4782                 1.4752                 1.5030
 IR Inten    --      7.5529                 8.2251                 8.9097

                    136                    137                    138
                      A                      A                      A
 Frequencies --   1697.2610              1715.2432              3040.4039
 Red. masses --      6.6655                 6.3679                 1.0816
 Frc consts  --     11.3131                11.0382                 5.8909
 IR Inten    --     22.7988                26.8032                29.2776

                    139                    140                    141
                      A                      A                      A
 Frequencies --   3049.5718              3054.9102              3059.0108
 Red. masses --      1.0370                 1.0406                 1.0354
 Frc consts  --      5.6818                 5.7216                 5.7085
 IR Inten    --     61.6466                57.2057                58.0887

                    142                    143                    144
                      A                      A                      A
 Frequencies --   3064.9653              3074.3744              3080.2427
 Red. masses --      1.0334                 1.0839                 1.0804
 Frc consts  --      5.7199                 6.0363                 6.0397
 IR Inten    --     47.8068                20.4668                 6.0290

                    145                    146                    147
                      A                      A                      A
 Frequencies --   3095.9619              3099.8118              3109.6025
 Red. masses --      1.0689                 1.0816                 1.1065
 Frc consts  --      6.0362                 6.1235                 6.3041
 IR Inten    --     18.2456                73.6958                54.4363

                    148                    149                    150
                      A                      A                      A
 Frequencies --   3133.0092              3134.0818              3136.1139
 Red. masses --      1.1027                 1.1036                 1.0952
 Frc consts  --      6.3773                 6.3867                 6.3466
 IR Inten    --     42.1859                43.4881                44.2301

                    151                    152                    153
                      A                      A                      A
 Frequencies --   3162.7362              3171.2623              3174.4806
 Red. masses --      1.1024                 1.1050                 1.1047
 Frc consts  --      6.4967                 6.5474                 6.5589
 IR Inten    --     17.3595                42.3463                34.8256

                    154                    155                    156
                      A                      A                      A
 Frequencies --   3176.8223              3182.1389              3186.8845
 Red. masses --      1.1062                 1.0987                 1.0904
 Frc consts  --      6.5774                 6.5551                 6.5246
 IR Inten    --     31.9691                31.4823                 6.5493

                    157                    158                    159
                      A                      A                      A
 Frequencies --   3262.8063              3266.9640              3276.2939
 Red. masses --      1.0927                 1.0928                 1.0928
 Frc consts  --      6.8538                 6.8719                 6.9113
 IR Inten    --      1.9724                 7.8999                 8.3789

 - Thermochemistry -
 -------------------
 Temperature   298.150 Kelvin.  Pressure   1.00000 Atm.
 Atom     1 has atomic number  6 and mass  12.00000

 Molecular mass:   512.09396 amu.
 Principal axes and moments of inertia in atomic units:
                           1         2         3
     Eigenvalues --  ******************************
           X            0.99994   0.00274   0.01028
           Y           -0.00450   0.98450   0.17531
           Z           -0.00964  -0.17535   0.98446
 This molecule is an asymmetric top.
 Rotational symmetry number  1.
 Warning -- assumption of classical behavior for rotation
           may cause significant error
 Rotational temperatures (Kelvin)      0.00727     0.00409     0.00394
 Rotational constants (GHZ):           0.15145     0.08516     0.08208
 Zero-point vibrational energy    1097139.6 (Joules/Mol)
                                  262.22265 (Kcal/Mol)
 Warning -- explicit consideration of  55 degrees of freedom as
           vibrations may cause significant error
 Vibrational temperatures:     17.92    22.63    30.22    33.92    47.10
          (Kelvin)             63.62    68.87    79.79    96.85   101.95
                              109.40   123.14   136.85   148.09   151.58
                              165.74   181.60   221.23   229.51   245.83
                              251.31   262.49   278.14   290.88   304.56
                              333.32   344.01   359.45   373.20   381.89
                              409.92   420.21   427.75   430.90   458.95
                              475.38   500.96   514.22   524.57   540.99
                              601.75   617.55   638.80   661.89   680.90
                              691.61   720.02   725.44   763.18   773.96
                              791.86   827.36   831.08   853.18   884.85
                              894.05   939.75   988.31   989.74  1006.33
                             1033.98  1047.99  1080.51  1207.36  1237.89
                             1256.54  1262.42  1306.70  1351.21  1366.44
                             1394.04  1401.90  1431.62  1440.00  1483.99
                             1495.07  1509.67  1536.02  1595.49  1640.80
                             1642.97  1652.42  1656.54  1661.54  1673.13
                             1704.51  1707.70  1713.61  1720.53  1723.03
                             1726.58  1727.76  1733.83  1741.19  1752.95
                             1754.41  1767.20  1774.42  1785.87  1788.40
                             1797.62  1806.42  1808.59  1851.47  1887.78
                             1901.41  1904.20  1950.62  1967.29  1971.54
                             1993.41  2000.64  2003.59  2029.78  2032.40
                             2051.19  2064.52  2088.24  2092.31  2108.39
                             2159.33  2166.99  2170.26  2173.36  2181.68
                             2184.71  2185.30  2188.04  2195.76  2200.32
                             2202.69  2216.58  2221.94  2222.39  2227.00
                             2441.98  2467.85  4374.46  4387.65  4395.33
                             4401.23  4409.80  4423.34  4431.78  4454.40
                             4459.94  4474.02  4507.70  4509.24  4512.17
                             4550.47  4562.74  4567.37  4570.74  4578.39
                             4585.22  4694.45  4700.43  4713.86

 Zero-point correction=                           0.417878 (Hartree/Particle)
 Thermal correction to Energy=                    0.451012
 Thermal correction to Enthalpy=                  0.451956
 Thermal correction to Gibbs Free Energy=         0.348580
 Sum of electronic and zero-point Energies=          -2297.024481
 Sum of electronic and thermal Energies=             -2296.991348
 Sum of electronic and thermal Enthalpies=           -2296.990403
 Sum of electronic and thermal Free Energies=        -2297.093779

                     E (Thermal)             CV                S
                      KCal/Mol        Cal/Mol-Kelvin    Cal/Mol-Kelvin
 Total                  283.014            119.127            217.572
 Electronic               0.000              0.000              0.000
 Translational            0.889              2.981             44.587
 Rotational               0.889              2.981             36.960
 Vibrational            281.237            113.165            136.025
 Vibration     1          0.593              1.987              7.574
 Vibration     2          0.593              1.986              7.111
 Vibration     3          0.593              1.986              6.537
 Vibration     4          0.593              1.985              6.308
 Vibration     5          0.594              1.983              5.656
 Vibration     6          0.595              1.980              5.060
 Vibration     7          0.595              1.978              4.904
 Vibration     8          0.596              1.975              4.613
 Vibration     9          0.598              1.970              4.230
 Vibration    10          0.598              1.968              4.129
 Vibration    11          0.599              1.965              3.991
 Vibration    12          0.601              1.959              3.758
 Vibration    13          0.603              1.953              3.552
 Vibration    14          0.605              1.947              3.398
 Vibration    15          0.605              1.945              3.353
 Vibration    16          0.608              1.937              3.179
 Vibration    17          0.611              1.927              3.003
 Vibration    18          0.619              1.898              2.625
 Vibration    19          0.621              1.892              2.555
 Vibration    20          0.626              1.878              2.426
 Vibration    21          0.627              1.874              2.385
 Vibration    22          0.630              1.864              2.303
 Vibration    23          0.635              1.849              2.196
 Vibration    24          0.639              1.837              2.113
 Vibration    25          0.643              1.823              2.029
 Vibration    26          0.653              1.793              1.866
 Vibration    27          0.657              1.781              1.810
 Vibration    28          0.663              1.763              1.732
 Vibration    29          0.668              1.747              1.666
 Vibration    30          0.671              1.736              1.626
 Vibration    31          0.683              1.702              1.504
 Vibration    32          0.687              1.689              1.462
 Vibration    33          0.691              1.679              1.432
 Vibration    34          0.692              1.675              1.420
 Vibration    35          0.705              1.637              1.315
 Vibration    36          0.713              1.615              1.258
 Vibration    37          0.726              1.579              1.174
 Vibration    38          0.733              1.560              1.133
 Vibration    39          0.738              1.545              1.102
 Vibration    40          0.747              1.521              1.055
 Vibration    41          0.781              1.431              0.898
 Vibration    42          0.791              1.407              0.861
 Vibration    43          0.803              1.374              0.814
 Vibration    44          0.818              1.339              0.766
 Vibration    45          0.830              1.309              0.728
 Vibration    46          0.837              1.293              0.708
 Vibration    47          0.856              1.249              0.657
 Vibration    48          0.859              1.241              0.648
 Vibration    49          0.885              1.183              0.586
 Vibration    50          0.893              1.166              0.570
 Vibration    51          0.906              1.139              0.543
 Vibration    52          0.931              1.085              0.495
 Vibration    53          0.934              1.080              0.490
 Vibration    54          0.951              1.047              0.462
 Vibration    55          0.975              1.000              0.425

                           ! Non-Optimized Parameters !
 Normal termination of Gaussian 16 at Wed Jun  5 18:18:57 2019.
