 Gaussian 16, Revision A.03,
 Gaussian 16:  AS64L-G16RevA.03 25-Dec-2016

 ----------------------------------------------------------------------
 #p opt freq=noraman 6-31g(d) scrf=(solvent=tetrahydrofuran,pcm) pop=no
 ne empiricaldispersion=gd3 m062x
 ----------------------------------------------------------------------

 -----
 title
 -----
 Symbolic Z-matrix:
 Charge =  0 Multiplicity = 1

 SCF Done:  E(RM062X) =  -2297.36075185     A.U. after   13 cycles
 SCF Done:  E(RM062X) =  -2297.36075178     A.U. after    6 cycles
 SCF Done:  E(RM062X) =  -2297.36075194     A.U. after    6 cycles
 SCF Done:  E(RM062X) =  -2297.36075189     A.U. after    6 cycles
 Optimization completed.
    -- Stationary point found.
 Normal termination of Gaussian 16 at Sun Jun  9 23:31:30 2019.

 --------------------------------------------------------------------
 #P Geom=AllCheck Guess=TCheck SCRF=Check GenChk RM062X/6-31G(d) Freq
 --------------------------------------------------------------------

 Structure from the checkpoint file:  "/scratch/users/ekwan/clay_new-glu_gluC6-bisCF3-sm-m062x_d3-631gd-pcm_thf/Gau-20283.chk"
 -----
 title
 -----
 Charge =  0 Multiplicity = 1

                         Standard orientation:
 ---------------------------------------------------------------------
 Center     Atomic      Atomic             Coordinates (Angstroms)
 Number     Number       Type             X           Y           Z
 ---------------------------------------------------------------------
      1          6           0        3.368716    0.360151    0.603742
      2          6           0        3.302927   -0.496721   -0.657971
      3          6           0        1.848650   -0.817296   -1.028534
      4          6           0        1.014773    1.098545    0.108929
      5          6           0        2.424624    1.549189    0.482885
      6          1           0        1.769261   -1.305114   -2.001599
      7          1           0        3.711129    0.090245   -1.498166
      8          1           0        3.058452   -0.249075    1.466055
      9          1           0        0.603946    0.490771    0.928974
     10          1           0        2.798680    2.217592   -0.305384
     11          8           0        1.044021    0.308396   -1.089283
     12          8           0        1.381259   -1.740256   -0.014766
     13          8           0        4.067087   -1.650633   -0.443094
     14          8           0        4.671188    0.862482    0.794830
     15          8           0        2.341519    2.227854    1.714594
     16          6           0        0.082979    2.282633   -0.113229
     17          1           0       -0.153862    2.706774    0.865504
     18          1           0       -0.845809    1.923482   -0.580064
     19          8           0        0.644151    3.328886   -0.869176
     20         16           0        0.097616   -2.654150   -0.356468
     21          8           0        0.070720   -3.651656    0.688460
     22          8           0        0.155015   -3.021168   -1.758602
     23          6           0       -1.265899   -1.541841   -0.118429
     24          6           0       -1.737991   -1.333215    1.172582
     25          6           0       -1.802127   -0.887746   -1.219976
     26          6           0       -2.779394   -0.429760    1.354209
     27          1           0       -1.303650   -1.865627    2.012811
     28          6           0       -2.844062    0.008839   -1.008801
     29          1           0       -1.413949   -1.074916   -2.215834
     30          6           0       -3.335011    0.245468    0.271359
     31          1           0       -4.145134    0.951137    0.424585
     32          6           0        4.187835   -2.486936   -1.578623
     33          1           0        3.250787   -3.017529   -1.791243
     34          1           0        4.484557   -1.909971   -2.464355
     35          1           0        4.961801   -3.220244   -1.350535
     36          6           0        5.452469    0.118510    1.712469
     37          1           0        6.422861    0.614373    1.773061
     38          1           0        4.987475    0.118010    2.706849
     39          1           0        5.587587   -0.913444    1.375534
     40          6           0        2.995892    3.484699    1.715709
     41          1           0        2.860405    3.910968    2.711296
     42          1           0        4.065120    3.367492    1.510016
     43          1           0        2.548560    4.152219    0.969002
     44          6           0        0.765213    3.045376   -2.251087
     45          1           0        0.952972    3.995275   -2.754840
     46          1           0       -0.161082    2.603292   -2.640071
     47          1           0        1.592770    2.356716   -2.455910
     48          6           0       -3.354487   -0.214184    2.728799
     49          9           0       -2.465976   -0.507186    3.684555
     50          9           0       -4.430880   -0.985490    2.931978
     51          9           0       -3.741595    1.056127    2.898788
     52          6           0       -3.389008    0.791747   -2.172166
     53          9           0       -2.698174    1.931476   -2.351976
     54          9           0       -4.667116    1.133820   -1.981652
     55          9           0       -3.308592    0.098810   -3.312480
 ---------------------------------------------------------------------

 SCF Done:  E(RM062X) =  -2297.36075189     A.U. after    1 cycles

 Isotropic polarizability for W=    0.000000      267.42 Bohr**3.
 End of Minotr F.D. properties file   721 does not exist.

                      1                      2                      3
                      A                      A                      A
 Frequencies --     17.3978                21.3456                26.1756
 Red. masses --      8.7359                 6.7528                15.3159
 Frc consts  --      0.0016                 0.0018                 0.0062
 IR Inten    --      0.1235                 0.1434                 0.0500

                      4                      5                      6
                      A                      A                      A
 Frequencies --     32.4149                35.3093                41.0275
 Red. masses --      4.7590                 4.8392                 5.3066
 Frc consts  --      0.0029                 0.0036                 0.0053
 IR Inten    --      2.1865                 2.5086                 0.1446

                      7                      8                      9
                      A                      A                      A
 Frequencies --     51.1821                57.9062                61.9882
 Red. masses --      7.5183                 3.4488                 3.9520
 Frc consts  --      0.0116                 0.0068                 0.0089
 IR Inten    --      0.2251                 3.6291                 1.7519

                     10                     11                     12
                      A                      A                      A
 Frequencies --     64.0268                74.8219                84.2027
 Red. masses --      3.3097                 3.3265                 4.0011
 Frc consts  --      0.0080                 0.0110                 0.0167
 IR Inten    --      0.8920                 7.4853                 1.3223

                     13                     14                     15
                      A                      A                      A
 Frequencies --    102.1569               103.6267               109.3299
 Red. masses --      7.5549                14.3585                 5.5721
 Frc consts  --      0.0465                 0.0908                 0.0392
 IR Inten    --      2.6546                 3.7871                 1.4056

                     16                     17                     18
                      A                      A                      A
 Frequencies --    117.9045               139.4670               156.5484
 Red. masses --      5.0825                 2.4363                 7.3714
 Frc consts  --      0.0416                 0.0279                 0.1064
 IR Inten    --      1.1482                 4.3034                 0.4483

                     19                     20                     21
                      A                      A                      A
 Frequencies --    163.8708               176.0829               179.8441
 Red. masses --      1.3477                 3.6531                 2.6269
 Frc consts  --      0.0213                 0.0667                 0.0501
 IR Inten    --      0.3811                 0.4071                 1.3618

                     22                     23                     24
                      A                      A                      A
 Frequencies --    184.0311               197.4560               209.0239
 Red. masses --      1.8437                 2.5102                 4.4297
 Frc consts  --      0.0368                 0.0577                 0.1140
 IR Inten    --      1.7806                 1.1212                14.6253

                     25                     26                     27
                      A                      A                      A
 Frequencies --    227.8384               239.7153               249.1297
 Red. masses --      1.5716                 7.8570                 3.1409
 Frc consts  --      0.0481                 0.2660                 0.1149
 IR Inten    --      1.6235                 0.2303                 4.8846

                     28                     29                     30
                      A                      A                      A
 Frequencies --    249.8991               260.8417               275.7585
 Red. masses --      1.7191                 5.0478                 3.3378
 Frc consts  --      0.0633                 0.2024                 0.1495
 IR Inten    --      0.3400                 4.4077                10.7585

                     31                     32                     33
                      A                      A                      A
 Frequencies --    286.0635               293.5952               297.3916
 Red. masses --     11.0000                 4.1722                10.4333
 Frc consts  --      0.5304                 0.2119                 0.5437
 IR Inten    --      3.7977                12.1912                 3.1934

                     34                     35                     36
                      A                      A                      A
 Frequencies --    300.9049               317.4749               336.4513
 Red. masses --      6.6776                 5.3451                 4.0111
 Frc consts  --      0.3562                 0.3174                 0.2675
 IR Inten    --     14.5580                 0.1652                 2.0758

                     37                     38                     39
                      A                      A                      A
 Frequencies --    349.4147               360.9993               368.5810
 Red. masses --      7.4953                 5.6699                 5.0619
 Frc consts  --      0.5392                 0.4353                 0.4052
 IR Inten    --      2.2341                 3.1652                 7.3316

                     40                     41                     42
                      A                      A                      A
 Frequencies --    378.5229               418.8648               430.3074
 Red. masses --      8.4611                10.1409                 9.2911
 Frc consts  --      0.7143                 1.0483                 1.0136
 IR Inten    --     16.1035                16.1912                 7.6969

                     43                     44                     45
                      A                      A                      A
 Frequencies --    437.2410               463.7023               475.7665
 Red. masses --      2.1981                 5.9386                 8.5840
 Frc consts  --      0.2476                 0.7523                 1.1448
 IR Inten    --      9.9004                 7.7155                20.0209

                     46                     47                     48
                      A                      A                      A
 Frequencies --    484.6556               501.9427               507.0581
 Red. masses --      3.9047                 7.7641                11.8973
 Frc consts  --      0.5404                 1.1525                 1.8022
 IR Inten    --      8.5990                11.8108                 1.0396

                     49                     50                     51
                      A                      A                      A
 Frequencies --    533.9673               540.7442               553.1809
 Red. masses --      5.7417                 6.0998                 5.5534
 Frc consts  --      0.9645                 1.0509                 1.0012
 IR Inten    --     55.9948                23.1415                10.7108

                     52                     53                     54
                      A                      A                      A
 Frequencies --    578.6337               580.7392               593.6163
 Red. masses --      5.9328                 6.3767                 9.5667
 Frc consts  --      1.1704                 1.2671                 1.9862
 IR Inten    --     43.2853                20.8853               241.8243

                     55                     56                     57
                      A                      A                      A
 Frequencies --    616.4612               622.9043               662.3179
 Red. masses --      6.5799                 8.2773                 5.5417
 Frc consts  --      1.4733                 1.8923                 1.4323
 IR Inten    --     33.6791                 2.8716                13.5818

                     58                     59                     60
                      A                      A                      A
 Frequencies --    688.3150               689.2738               701.5705
 Red. masses --      8.2634                11.7600                 5.5905
 Frc consts  --      2.3067                 3.2919                 1.6212
 IR Inten    --      7.5443                57.7210                23.5717

                     61                     62                     63
                      A                      A                      A
 Frequencies --    716.0648               733.0166               757.6419
 Red. masses --      2.5119                10.3653                 5.2302
 Frc consts  --      0.7588                 3.2814                 1.7689
 IR Inten    --     34.1888                 0.8606                35.5323

                     64                     65                     66
                      A                      A                      A
 Frequencies --    843.7738               863.7962               881.1023
 Red. masses --      5.7002                 4.4108                 6.9267
 Frc consts  --      2.3911                 1.9391                 3.1683
 IR Inten    --    115.9288                 6.3128               403.6681

                     67                     68                     69
                      A                      A                      A
 Frequencies --    883.0602               922.0636               931.9203
 Red. masses --     11.9816                 3.9562                 1.6623
 Frc consts  --      5.5048                 1.9818                 0.8506
 IR Inten    --     25.2141               145.1486                91.8844

                     70                     71                     72
                      A                      A                      A
 Frequencies --    959.0798               961.6698               968.7732
 Red. masses --      2.1374                 1.5844                 1.3784
 Frc consts  --      1.1584                 0.8633                 0.7622
 IR Inten    --     21.4386                 4.8708                 7.0927

                     73                     74                     75
                      A                      A                      A
 Frequencies --   1006.5880              1010.7880              1017.3328
 Red. masses --      4.6247                 3.8004                 6.3561
 Frc consts  --      2.7608                 2.2877                 3.8759
 IR Inten    --     55.3399                22.5788                 2.1474

                     76                     77                     78
                      A                      A                      A
 Frequencies --   1050.3089              1059.0922              1076.1855
 Red. masses --      3.9559                 3.4711                 3.7854
 Frc consts  --      2.5712                 2.2940                 2.5831
 IR Inten    --     46.6893                11.9391               137.7164

                     79                     80                     81
                      A                      A                      A
 Frequencies --   1115.5473              1143.2402              1143.6124
 Red. masses --      2.7111                 2.4915                 2.6201
 Frc consts  --      1.9878                 1.9186                 2.0190
 IR Inten    --     16.0829                52.3884                 9.2580

                     82                     83                     84
                      A                      A                      A
 Frequencies --   1149.1975              1150.7431              1156.7579
 Red. masses --      1.8654                 3.1789                 2.1343
 Frc consts  --      1.4515                 2.4802                 1.6826
 IR Inten    --     26.3121               132.4088                14.1941

                     85                     86                     87
                      A                      A                      A
 Frequencies --   1166.2386              1190.3425              1191.9092
 Red. masses --      2.2570                 1.3682                 1.3219
 Frc consts  --      1.8087                 1.1422                 1.1064
 IR Inten    --    180.6711                 5.0204                 9.1710

                     88                     89                     90
                      A                      A                      A
 Frequencies --   1191.9680              1194.4213              1195.8626
 Red. masses --      1.6307                 3.2399                 1.8777
 Frc consts  --      1.3651                 2.7233                 1.5821
 IR Inten    --     41.3388               240.5966               109.4042

                     91                     92                     93
                      A                      A                      A
 Frequencies --   1197.7614              1201.3881              1209.3421
 Red. masses --      1.7889                 1.9100                 1.6273
 Frc consts  --      1.5121                 1.6242                 1.4022
 IR Inten    --     88.3133               242.2798                45.4298

                     94                     95                     96
                      A                      A                      A
 Frequencies --   1221.9184              1233.4175              1238.3241
 Red. masses --      2.5817                 2.4712                10.1658
 Frc consts  --      2.2711                 2.2150                 9.1846
 IR Inten    --     95.2994               236.6114               432.4024

                     97                     98                     99
                      A                      A                      A
 Frequencies --   1240.1659              1243.8082              1253.9115
 Red. masses --      3.0081                 2.0752                12.6508
 Frc consts  --      2.7259                 1.8916                11.7193
 IR Inten    --     75.0202               130.1847               343.1962

                    100                    101                    102
                      A                      A                      A
 Frequencies --   1256.9443              1264.4615              1267.2275
 Red. masses --      2.1361                 2.7220                 5.4732
 Frc consts  --      1.9884                 2.5642                 5.1785
 IR Inten    --     25.6241                74.0938                75.6012

                    103                    104                    105
                      A                      A                      A
 Frequencies --   1277.5123              1284.5825              1304.2399
 Red. masses --      7.9367                 1.9219                 1.5995
 Frc consts  --      7.6317                 1.8685                 1.6030
 IR Inten    --    354.2222                20.4265                12.4844

                    106                    107                    108
                      A                      A                      A
 Frequencies --   1313.7298              1327.4713              1350.2931
 Red. masses --      1.5119                 3.8124                 1.2179
 Frc consts  --      1.5374                 3.9582                 1.3083
 IR Inten    --     11.7995               827.7637                14.4686

                    109                    110                    111
                      A                      A                      A
 Frequencies --   1362.7507              1369.3943              1381.9500
 Red. masses --      1.4851                 5.1497                 1.2603
 Frc consts  --      1.6249                 5.6897                 1.4181
 IR Inten    --      3.4999                80.7915                19.4486

                    112                    113                    114
                      A                      A                      A
 Frequencies --   1383.1057              1394.2542              1405.2649
 Red. masses --      1.3208                 5.0314                 1.4522
 Frc consts  --      1.4886                 5.7627                 1.6896
 IR Inten    --     21.5600               204.5474                12.7664

                    115                    116                    117
                      A                      A                      A
 Frequencies --   1416.8382              1420.7647              1425.9841
 Red. masses --      6.0404                 1.5353                 1.3499
 Frc consts  --      7.1443                 1.8259                 1.6173
 IR Inten    --    189.1903                22.7907                 3.8289

                    118                    119                    120
                      A                      A                      A
 Frequencies --   1443.3885              1446.8768              1459.8377
 Red. masses --      1.5532                 1.3741                 1.4619
 Frc consts  --      1.9065                 1.6949                 1.8356
 IR Inten    --     27.8428                26.3799                 9.2426

                    121                    122                    123
                      A                      A                      A
 Frequencies --   1490.6266              1499.2711              1502.3061
 Red. masses --      1.0863                 1.2037                 1.1859
 Frc consts  --      1.4221                 1.5941                 1.5770
 IR Inten    --      2.1468                 0.8952                 1.7530

                    124                    125                    126
                      A                      A                      A
 Frequencies --   1506.3098              1512.7488              1514.0028
 Red. masses --      1.1456                 1.1146                 4.1155
 Frc consts  --      1.5315                 1.5028                 5.5581
 IR Inten    --      5.3047                13.5006                 0.3056

                    127                    128                    129
                      A                      A                      A
 Frequencies --   1514.8115              1515.7024              1524.4271
 Red. masses --      1.0516                 1.0560                 1.0881
 Frc consts  --      1.4217                 1.4294                 1.4898
 IR Inten    --      2.4941                 1.2868                 4.6710

                    130                    131                    132
                      A                      A                      A
 Frequencies --   1525.2229              1526.0424              1535.4794
 Red. masses --      1.1474                 4.0582                 1.0542
 Frc consts  --      1.5726                 5.5682                 1.4644
 IR Inten    --      2.7740                 0.5145                 9.9694

                    133                    134                    135
                      A                      A                      A
 Frequencies --   1537.6690              1538.3894              1540.0992
 Red. masses --      1.0489                 1.0504                 1.0472
 Frc consts  --      1.4611                 1.4647                 1.4634
 IR Inten    --      8.9344                 5.5332                 9.5915

                    136                    137                    138
                      A                      A                      A
 Frequencies --   1691.7856              1711.5922              3031.6923
 Red. masses --      6.9144                 6.6274                 1.0826
 Frc consts  --     11.6600                11.4391                 5.8627
 IR Inten    --     25.5673                31.3376                31.5441

                    139                    140                    141
                      A                      A                      A
 Frequencies --   3053.0712              3059.3510              3063.3425
 Red. masses --      1.0355                 1.0735                 1.0406
 Frc consts  --      5.6868                 5.9200                 5.7535
 IR Inten    --     52.8052                22.2079                25.8456

                    142                    143                    144
                      A                      A                      A
 Frequencies --   3063.8897              3064.9105              3067.9984
 Red. masses --      1.0400                 1.0413                 1.0736
 Frc consts  --      5.7523                 5.7633                 5.9539
 IR Inten    --     88.1625                26.9837                16.2745

                    145                    146                    147
                      A                      A                      A
 Frequencies --   3077.4542              3084.8732              3114.9217
 Red. masses --      1.0688                 1.0838                 1.1060
 Frc consts  --      5.9637                 6.0770                 6.3229
 IR Inten    --     35.6900                69.1044                53.8365

                    148                    149                    150
                      A                      A                      A
 Frequencies --   3130.1590              3138.4996              3142.9288
 Red. masses --      1.1042                 1.1049                 1.0975
 Frc consts  --      6.3743                 6.4126                 6.3876
 IR Inten    --     43.4008                40.0337                42.2109

                    151                    152                    153
                      A                      A                      A
 Frequencies --   3162.5898              3176.6307              3179.1712
 Red. masses --      1.0984                 1.0881                 1.1029
 Frc consts  --      6.4731                 6.4693                 6.5676
 IR Inten    --     16.0959                11.9366                42.0899

                    154                    155                    156
                      A                      A                      A
 Frequencies --   3182.2143              3185.4865              3190.8212
 Red. masses --      1.1034                 1.1048                 1.0998
 Frc consts  --      6.5835                 6.6052                 6.5972
 IR Inten    --     34.8490                31.9263                26.5018

                    157                    158                    159
                      A                      A                      A
 Frequencies --   3255.8866              3256.6395              3259.5489
 Red. masses --      1.0931                 1.0925                 1.0929
 Frc consts  --      6.8271                 6.8270                 6.8416
 IR Inten    --      9.1240                 4.2766                10.9246

 - Thermochemistry -
 -------------------
 Temperature   298.150 Kelvin.  Pressure   1.00000 Atm.
 Atom     1 has atomic number  6 and mass  12.00000

 Molecular mass:   512.09396 amu.
 Principal axes and moments of inertia in atomic units:
                           1         2         3
     Eigenvalues --  ******************************
           X            0.99994   0.00663   0.00824
           Y           -0.00787   0.98695   0.16083
           Z           -0.00706  -0.16089   0.98695
 This molecule is an asymmetric top.
 Rotational symmetry number  1.
 Warning -- assumption of classical behavior for rotation
           may cause significant error
 Rotational temperatures (Kelvin)      0.00729     0.00413     0.00404
 Rotational constants (GHZ):           0.15197     0.08615     0.08420
 Zero-point vibrational energy    1098402.5 (Joules/Mol)
                                  262.52450 (Kcal/Mol)
 Warning -- explicit consideration of  55 degrees of freedom as
           vibrations may cause significant error
 Vibrational temperatures:     25.03    30.71    37.66    46.64    50.80
          (Kelvin)             59.03    73.64    83.31    89.19    92.12
                              107.65   121.15   146.98   149.10   157.30
                              169.64   200.66   225.24   235.77   253.34
                              258.76   264.78   284.10   300.74   327.81
                              344.90   358.44   359.55   375.29   396.76
                              411.58   422.42   427.88   432.94   456.78
                              484.08   502.73   519.40   530.31   544.61
                              602.65   619.12   629.09   667.16   684.52
                              697.31   722.18   729.54   768.26   778.01
                              795.90   832.52   835.55   854.08   886.95
                              896.22   952.93   990.33   991.71  1009.40
                             1030.26  1054.65  1090.08  1214.00  1242.81
                             1267.71  1270.53  1326.64  1340.83  1379.90
                             1383.63  1393.85  1448.26  1454.30  1463.71
                             1511.16  1523.80  1548.39  1605.02  1644.87
                             1645.40  1653.44  1655.66  1664.32  1677.96
                             1712.64  1714.89  1714.98  1718.51  1720.58
                             1723.31  1728.53  1739.97  1758.07  1774.61
                             1781.67  1784.32  1789.56  1804.10  1808.46
                             1819.28  1823.26  1838.06  1848.23  1876.51
                             1890.16  1909.94  1942.77  1960.69  1970.25
                             1988.32  1989.98  2006.02  2021.86  2038.51
                             2044.16  2051.67  2076.71  2081.73  2100.38
                             2144.68  2157.12  2161.48  2167.24  2176.51
                             2178.31  2179.48  2180.76  2193.31  2194.46
                             2195.63  2209.21  2212.36  2213.40  2215.86
                             2434.10  2462.60  4361.93  4392.69  4401.72
                             4407.47  4408.25  4409.72  4414.17  4427.77
                             4438.44  4481.68  4503.60  4515.60  4521.97
                             4550.26  4570.46  4574.12  4578.50  4583.20
                             4590.88  4684.49  4685.58  4689.76

 Zero-point correction=                           0.418359 (Hartree/Particle)
 Thermal correction to Energy=                    0.451224
 Thermal correction to Enthalpy=                  0.452168
 Thermal correction to Gibbs Free Energy=         0.350463
 Sum of electronic and zero-point Energies=          -2296.942392
 Sum of electronic and thermal Energies=             -2296.909528
 Sum of electronic and thermal Enthalpies=           -2296.908584
 Sum of electronic and thermal Free Energies=        -2297.010289

                     E (Thermal)             CV                S
                      KCal/Mol        Cal/Mol-Kelvin    Cal/Mol-Kelvin
 Total                  283.147            118.715            214.057
 Electronic               0.000              0.000              0.000
 Translational            0.889              2.981             44.587
 Rotational               0.889              2.981             36.920
 Vibrational            281.370            112.753            132.550
 Vibration     1          0.593              1.986              6.911
 Vibration     2          0.593              1.985              6.505
 Vibration     3          0.593              1.985              6.100
 Vibration     4          0.594              1.983              5.676
 Vibration     5          0.594              1.982              5.506
 Vibration     6          0.594              1.981              5.209
 Vibration     7          0.595              1.977              4.771
 Vibration     8          0.596              1.974              4.527
 Vibration     9          0.597              1.972              4.393
 Vibration    10          0.597              1.971              4.329
 Vibration    11          0.599              1.966              4.022
 Vibration    12          0.601              1.960              3.790
 Vibration    13          0.604              1.947              3.413
 Vibration    14          0.605              1.946              3.385
 Vibration    15          0.606              1.942              3.281
 Vibration    16          0.608              1.934              3.134
 Vibration    17          0.615              1.914              2.811
 Vibration    18          0.620              1.895              2.591
 Vibration    19          0.623              1.887              2.505
 Vibration    20          0.628              1.872              2.370
 Vibration    21          0.629              1.867              2.330
 Vibration    22          0.631              1.862              2.287
 Vibration    23          0.637              1.843              2.157
 Vibration    24          0.642              1.827              2.052
 Vibration    25          0.651              1.799              1.896
 Vibration    26          0.657              1.780              1.805
 Vibration    27          0.662              1.764              1.737
 Vibration    28          0.663              1.763              1.731
 Vibration    29          0.669              1.744              1.656
 Vibration    30          0.677              1.718              1.560
 Vibration    31          0.684              1.700              1.497
 Vibration    32          0.688              1.686              1.453
 Vibration    33          0.691              1.679              1.432
 Vibration    34          0.693              1.672              1.412
 Vibration    35          0.704              1.640              1.323
 Vibration    36          0.717              1.603              1.229
 Vibration    37          0.727              1.576              1.169
 Vibration    38          0.735              1.553              1.118
 Vibration    39          0.741              1.537              1.086
 Vibration    40          0.749              1.516              1.045
 Vibration    41          0.782              1.429              0.896
 Vibration    42          0.792              1.404              0.858
 Vibration    43          0.798              1.389              0.835
 Vibration    44          0.821              1.331              0.755
 Vibration    45          0.832              1.304              0.722
 Vibration    46          0.841              1.284              0.698
 Vibration    47          0.857              1.246              0.653
 Vibration    48          0.862              1.234              0.641
 Vibration    49          0.889              1.175              0.578
 Vibration    50          0.896              1.160              0.564
 Vibration    51          0.909              1.133              0.538
 Vibration    52          0.935              1.077              0.488
 Vibration    53          0.937              1.073              0.484
 Vibration    54          0.951              1.045              0.461
 Vibration    55          0.976              0.997              0.422

                           ! Non-Optimized Parameters !
 Normal termination of Gaussian 16 at Mon Jun 10 00:08:13 2019.
