 Gaussian 16, Revision A.03,
 Gaussian 16:  AS64L-G16RevA.03 25-Dec-2016

 ----------------------------------------------------------------------
 #p opt freq=noraman pop=none 6-31g* scrf=(pcm,solvent=tetrahydrofuran)
  bp86 empiricaldispersion=gd3bj
 ----------------------------------------------------------------------

 -----
 title
 -----
 Symbolic Z-matrix:
 Charge =  0 Multiplicity = 1

 SCF Done:  E(RB-P86) =  -2298.21861998     A.U. after   15 cycles
 Optimization completed.
    -- Stationary point found.
 Normal termination of Gaussian 16 at Wed Jun  5 17:05:21 2019.

 -------------------------------------------------------------------
 #P Geom=AllCheck Guess=TCheck SCRF=Check GenChk RBP86/6-31G(d) Freq
 -------------------------------------------------------------------

 Structure from the checkpoint file:  "/scratch/users/ekwan/clay_new-glu_gluC6-bisCF3-sm-bp86_d3bj-631gd-pcm_thf/Gau-34989.chk"
 -----
 title
 -----
 Charge =  0 Multiplicity = 1

                         Standard orientation:
 ---------------------------------------------------------------------
 Center     Atomic      Atomic             Coordinates (Angstroms)
 Number     Number       Type             X           Y           Z
 ---------------------------------------------------------------------
      1          6           0       -3.392529   -0.542662    0.437131
      2          6           0       -3.307819    0.613943   -0.572577
      3          6           0       -1.841877    1.046537   -0.798855
      4          6           0       -0.978012   -1.096178   -0.154725
      5          6           0       -2.391919   -1.649520    0.078693
      6          1           0       -1.741455    1.778227   -1.614593
      7          1           0       -3.672515    0.245203   -1.557149
      8          1           0       -3.146937   -0.157756    1.447685
      9          1           0       -0.582230   -0.696086    0.800142
     10          1           0       -2.727969   -2.147891   -0.850936
     11          8           0       -1.002083   -0.020077   -1.135766
     12          8           0       -1.430131    1.693569    0.455728
     13          8           0       -4.125622    1.675641   -0.104859
     14          8           0       -4.693891   -1.133171    0.430937
     15          8           0       -2.299936   -2.592802    1.149357
     16          6           0       -0.008081   -2.172609   -0.651797
     17          1           0        0.201951   -2.841228    0.198837
     18          1           0        0.938105   -1.689419   -0.967513
     19          8           0       -0.516019   -3.008826   -1.687642
     20         16           0       -0.123176    2.716118    0.366126
     21          8           0       -0.123419    3.406965    1.666178
     22          8           0       -0.172984    3.453687   -0.914217
     23          6           0        1.262123    1.572541    0.313661
     24          6           0        1.687026    0.976603    1.506059
     25          6           0        1.836446    1.264466   -0.924822
     26          6           0        2.728949    0.037836    1.447217
     27          1           0        1.217159    1.237562    2.457450
     28          6           0        2.877162    0.327490   -0.958672
     29          1           0        1.474979    1.742608   -1.836945
     30          6           0        3.325173   -0.289041    0.221098
     31          1           0        4.131854   -1.025151    0.183900
     32          6           0       -4.311736    2.722147   -1.063317
     33          1           0       -3.392850    3.324624   -1.204792
     34          1           0       -4.633964    2.317896   -2.044522
     35          1           0       -5.102271    3.374233   -0.661604
     36          6           0       -5.574251   -0.602853    1.428189
     37          1           0       -6.510969   -1.177890    1.350152
     38          1           0       -5.151949   -0.736974    2.445063
     39          1           0       -5.780182    0.469129    1.260828
     40          6           0       -2.952347   -3.834821    0.860325
     41          1           0       -2.800779   -4.478194    1.742086
     42          1           0       -4.034883   -3.687330    0.691898
     43          1           0       -2.503739   -4.321034   -0.028511
     44          6           0       -0.521224   -2.383723   -2.977132
     45          1           0       -0.739859   -3.178864   -3.707979
     46          1           0        0.467637   -1.938029   -3.203934
     47          1           0       -1.289101   -1.591925   -3.053970
     48          6           0        3.246562   -0.584423    2.725515
     49          9           0        2.265074   -0.688461    3.662075
     50          9           0        4.246988    0.165728    3.268397
     51          9           0        3.748719   -1.830171    2.506330
     52          6           0        3.473063   -0.095413   -2.281674
     53          9           0        2.953986   -1.296781   -2.687539
     54          9           0        4.820176   -0.260452   -2.192946
     55          9           0        3.223192    0.805536   -3.266012
 ---------------------------------------------------------------------

 SCF Done:  E(RB-P86) =  -2298.21861998     A.U. after    1 cycles

 Isotropic polarizability for W=    0.000000      295.10 Bohr**3.
 End of Minotr F.D. properties file   721 does not exist.

                      1                      2                      3
                      A                      A                      A
 Frequencies --     10.1175                15.7997                19.5421
 Red. masses --     10.6219                 6.4562                16.2112
 Frc consts  --      0.0006                 0.0009                 0.0036
 IR Inten    --      0.0308                 0.3150                 0.0031

                      4                      5                      6
                      A                      A                      A
 Frequencies --     25.2674                33.8039                39.6674
 Red. masses --     11.7443                 4.9585                 4.7675
 Frc consts  --      0.0044                 0.0033                 0.0044
 IR Inten    --      0.0475                 0.1195                 1.5729

                      7                      8                      9
                      A                      A                      A
 Frequencies --     49.3403                50.9987                60.4360
 Red. masses --      4.7576                 3.4849                 3.9459
 Frc consts  --      0.0068                 0.0053                 0.0085
 IR Inten    --      0.6902                 1.5160                 3.6693

                     10                     11                     12
                      A                      A                      A
 Frequencies --     68.4132                72.2167                82.4527
 Red. masses --      3.5423                 3.3661                 2.8436
 Frc consts  --      0.0098                 0.0103                 0.0114
 IR Inten    --      0.9088                 4.1905                 4.4160

                     13                     14                     15
                      A                      A                      A
 Frequencies --     93.1768                96.6528               100.8459
 Red. masses --      4.5544                10.2547                 6.7271
 Frc consts  --      0.0233                 0.0564                 0.0403
 IR Inten    --      2.4480                 3.4657                 2.3141

                     16                     17                     18
                      A                      A                      A
 Frequencies --    110.4144               127.6193               145.5549
 Red. masses --      8.6991                 2.3909                 7.2202
 Frc consts  --      0.0625                 0.0229                 0.0901
 IR Inten    --      0.6219                 3.3949                 0.6089

                     19                     20                     21
                      A                      A                      A
 Frequencies --    153.0037               161.9469               166.2681
 Red. masses --      2.8988                 2.1347                 2.4698
 Frc consts  --      0.0400                 0.0330                 0.0402
 IR Inten    --      1.3930                 0.2738                 1.2793

                     22                     23                     24
                      A                      A                      A
 Frequencies --    176.6270               187.0618               191.8955
 Red. masses --      2.1831                 1.6378                 3.0010
 Frc consts  --      0.0401                 0.0338                 0.0651
 IR Inten    --      0.1939                 3.9334                10.2959

                     25                     26                     27
                      A                      A                      A
 Frequencies --    208.6178               223.9467               226.3224
 Red. masses --      1.5000                 3.1592                 2.8014
 Frc consts  --      0.0385                 0.0933                 0.0845
 IR Inten    --      0.2824                 2.1239                 3.5212

                     28                     29                     30
                      A                      A                      A
 Frequencies --    236.7494               243.5084               256.9212
 Red. masses --      3.7974                 4.9422                 3.4732
 Frc consts  --      0.1254                 0.1727                 0.1351
 IR Inten    --      2.6312                 7.3237                10.5274

                     31                     32                     33
                      A                      A                      A
 Frequencies --    268.2895               275.4457               282.4064
 Red. masses --     10.3151                 5.4270                 5.2574
 Frc consts  --      0.4375                 0.2426                 0.2470
 IR Inten    --      4.6070                15.2779                 8.8621

                     34                     35                     36
                      A                      A                      A
 Frequencies --    283.4870               300.6864               316.3056
 Red. masses --     12.6615                 5.5214                 4.0119
 Frc consts  --      0.5995                 0.2941                 0.2365
 IR Inten    --      1.9963                 0.1706                 2.8185

                     37                     38                     39
                      A                      A                      A
 Frequencies --    328.7505               337.6174               345.8326
 Red. masses --      7.7315                 6.6718                 4.4700
 Frc consts  --      0.4923                 0.4481                 0.3150
 IR Inten    --      1.4969                 6.2599                 7.1668

                     40                     41                     42
                      A                      A                      A
 Frequencies --    350.4665               394.3389               406.2371
 Red. masses --      8.8163                10.3119                 9.2255
 Frc consts  --      0.6380                 0.9448                 0.8970
 IR Inten    --     18.5115                15.1813                 7.8747

                     43                     44                     45
                      A                      A                      A
 Frequencies --    416.5907               435.0810               443.8263
 Red. masses --      2.1533                 6.0047                 9.0847
 Frc consts  --      0.2202                 0.6697                 1.0544
 IR Inten    --      7.7503                 8.8116                24.2799

                     46                     47                     48
                      A                      A                      A
 Frequencies --    456.4203               467.4664               474.8710
 Red. masses --      4.2504                 7.0605                11.9539
 Frc consts  --      0.5217                 0.9090                 1.5882
 IR Inten    --      5.0905                11.5011                 1.5329

                     49                     50                     51
                      A                      A                      A
 Frequencies --    498.9615               505.3594               518.7894
 Red. masses --      7.5273                 5.6730                 5.1641
 Frc consts  --      1.1041                 0.8536                 0.8189
 IR Inten    --     51.0594                 4.8875                32.4751

                     52                     53                     54
                      A                      A                      A
 Frequencies --    541.9786               548.4309               553.6360
 Red. masses --      9.9207                 6.7482                 4.9573
 Frc consts  --      1.7170                 1.1959                 0.8953
 IR Inten    --     72.8833                90.4788                72.3556

                     55                     56                     57
                      A                      A                      A
 Frequencies --    574.7110               587.4027               619.6458
 Red. masses --      6.8926                 8.1758                 5.5460
 Frc consts  --      1.3413                 1.6621                 1.2546
 IR Inten    --     23.1765                 1.9647                 7.1075

                     58                     59                     60
                      A                      A                      A
 Frequencies --    645.2188               647.1575               652.0260
 Red. masses --      7.9379                 7.2720                13.0058
 Frc consts  --      1.9470                 1.7944                 3.2578
 IR Inten    --     10.6266                92.5748                49.7693

                     61                     62                     63
                      A                      A                      A
 Frequencies --    679.5555               687.2441               707.0171
 Red. masses --      2.7948                11.7669                 5.0126
 Frc consts  --      0.7604                 3.2744                 1.4763
 IR Inten    --     16.2874                 0.6053               172.1456

                     64                     65                     66
                      A                      A                      A
 Frequencies --    745.9838               798.8712               808.7170
 Red. masses --      7.9736                 4.2449                 7.0420
 Frc consts  --      2.6143                 1.5961                 2.7136
 IR Inten    --    375.3814                29.1954                28.3275

                     67                     68                     69
                      A                      A                      A
 Frequencies --    828.9775               845.6513               864.9338
 Red. masses --     11.8246                 3.9971                 1.5149
 Frc consts  --      4.7877                 1.6842                 0.6677
 IR Inten    --     32.3182                35.5647                61.6024

                     70                     71                     72
                      A                      A                      A
 Frequencies --    891.7400               897.5343               901.9886
 Red. masses --      3.0370                 1.3973                 1.3626
 Frc consts  --      1.4229                 0.6632                 0.6531
 IR Inten    --     35.9351                 0.9567                 3.8212

                     73                     74                     75
                      A                      A                      A
 Frequencies --    931.4953               942.6866               970.3261
 Red. masses --      5.1435                 4.3342                 4.0295
 Frc consts  --      2.6295                 2.2693                 2.2353
 IR Inten    --     13.9596                34.1453                45.5087

                     76                     77                     78
                      A                      A                      A
 Frequencies --    983.3694               986.5351              1005.9391
 Red. masses --      4.4729                 6.3391                 3.5752
 Frc consts  --      2.5484                 3.6350                 2.1315
 IR Inten    --     15.0788                 4.4344               125.1844

                     79                     80                     81
                      A                      A                      A
 Frequencies --   1044.7196              1071.9300              1080.1452
 Red. masses --      3.0300                11.6738                 3.4545
 Frc consts  --      1.9485                 7.9031                 2.3746
 IR Inten    --     12.9937                62.9255               160.5907

                     82                     83                     84
                      A                      A                      A
 Frequencies --   1082.7910              1089.8350              1090.8010
 Red. masses --      3.3346                 5.1403                 3.5708
 Frc consts  --      2.3035                 3.5972                 2.5032
 IR Inten    --    118.1324               328.8874                44.7472

                     85                     86                     87
                      A                      A                      A
 Frequencies --   1095.4630              1102.7568              1103.7959
 Red. masses --      2.6648                 3.9734                 4.4157
 Frc consts  --      1.8841                 2.8469                 3.1698
 IR Inten    --     73.4045               250.3294               173.9691

                     88                     89                     90
                      A                      A                      A
 Frequencies --   1108.9480              1110.8238              1119.7407
 Red. masses --      3.8577                 3.9436                 3.7302
 Frc consts  --      2.7951                 2.8670                 2.7556
 IR Inten    --    486.9601               169.1828                 2.6373

                     91                     92                     93
                      A                      A                      A
 Frequencies --   1120.4059              1134.1484              1139.5890
 Red. masses --     10.9468                 4.4296                 2.0994
 Frc consts  --      8.0963                 3.3570                 1.6064
 IR Inten    --    337.6439               160.9848                58.9214

                     94                     95                     96
                      A                      A                      A
 Frequencies --   1144.5526              1145.3984              1148.1868
 Red. masses --      1.2705                 1.5657                 1.3198
 Frc consts  --      0.9806                 1.2102                 1.0252
 IR Inten    --      1.1072                28.9378                 5.1748

                     97                     98                     99
                      A                      A                      A
 Frequencies --   1153.3066              1154.6031              1161.7528
 Red. masses --      1.3088                 5.8784                 4.8259
 Frc consts  --      1.0256                 4.6171                 3.8376
 IR Inten    --     11.2118               154.8275               191.0824

                    100                    101                    102
                      A                      A                      A
 Frequencies --   1169.8080              1179.1885              1185.5272
 Red. masses --      1.3358                 1.4250                 1.5798
 Frc consts  --      1.0770                 1.1674                 1.3082
 IR Inten    --     20.7947                18.4473                 9.9013

                    103                    104                    105
                      A                      A                      A
 Frequencies --   1194.1983              1221.6123              1237.5495
 Red. masses --      1.5949                 1.7639                 3.3067
 Frc consts  --      1.3401                 1.5509                 2.9838
 IR Inten    --     11.1888                 6.4249               779.5198

                    106                    107                    108
                      A                      A                      A
 Frequencies --   1256.5752              1266.3584              1283.8913
 Red. masses --      1.4618                 1.2787                 1.4421
 Frc consts  --      1.3600                 1.2082                 1.4006
 IR Inten    --      2.7606                 5.4197                 8.0980

                    109                    110                    111
                      A                      A                      A
 Frequencies --   1293.8283              1297.1915              1317.7025
 Red. masses --      7.5305                 1.1864                 1.2573
 Frc consts  --      7.4272                 1.1762                 1.2862
 IR Inten    --    218.8223                 5.5062                47.3558

                    112                    113                    114
                      A                      A                      A
 Frequencies --   1320.2618              1325.4597              1333.8825
 Red. masses --      1.1996                 5.8735                 1.2815
 Frc consts  --      1.2320                 6.0797                 1.3434
 IR Inten    --      9.3055               159.5376                 1.6422

                    115                    116                    117
                      A                      A                      A
 Frequencies --   1343.6920              1359.9632              1367.9402
 Red. masses --      1.4659                 1.3050                 1.3832
 Frc consts  --      1.5593                 1.4221                 1.5250
 IR Inten    --     11.8209                 3.4812                26.1058

                    118                    119                    120
                      A                      A                      A
 Frequencies --   1374.9351              1379.2761              1386.0555
 Red. masses --      7.6780                 1.3086                 1.3319
 Frc consts  --      8.5519                 1.4668                 1.5076
 IR Inten    --      1.1826                 8.6644                11.2097

                    121                    122                    123
                      A                      A                      A
 Frequencies --   1434.7307              1437.6661              1440.0161
 Red. masses --      1.1194                 3.3925                 1.1618
 Frc consts  --      1.3576                 4.1312                 1.4194
 IR Inten    --      5.2094                 2.4261                 0.7058

                    124                    125                    126
                      A                      A                      A
 Frequencies --   1442.2796              1445.7805              1454.1045
 Red. masses --      1.1526                 1.1240                 1.2798
 Frc consts  --      1.4126                 1.3843                 1.5944
 IR Inten    --      1.7158                 6.3749                 2.3154

                    127                    128                    129
                      A                      A                      A
 Frequencies --   1454.2404              1456.1429              1458.2747
 Red. masses --      2.2388                 1.1255                 1.0574
 Frc consts  --      2.7896                 1.4061                 1.3248
 IR Inten    --      0.6226                11.6380                 0.8104

                    130                    131                    132
                      A                      A                      A
 Frequencies --   1461.9643              1468.5431              1483.0256
 Red. masses --      1.0894                 1.0863                 1.0477
 Frc consts  --      1.3719                 1.3803                 1.3576
 IR Inten    --      1.5325                 5.2000                12.0915

                    133                    134                    135
                      A                      A                      A
 Frequencies --   1486.0817              1487.2322              1488.2075
 Red. masses --      1.0490                 1.0499                 1.0564
 Frc consts  --      1.3650                 1.3683                 1.3786
 IR Inten    --      5.5182                10.9222                 9.2987

                    136                    137                    138
                      A                      A                      A
 Frequencies --   1595.2931              1617.6107              2906.5344
 Red. masses --      6.6327                 6.2926                 1.0814
 Frc consts  --      9.9453                 9.7012                 5.3825
 IR Inten    --      9.1514                13.5184                41.0034

                    139                    140                    141
                      A                      A                      A
 Frequencies --   2929.5626              2934.3278              2941.0373
 Red. masses --      1.0359                 1.0410                 1.0347
 Frc consts  --      5.2380                 5.2813                 5.2733
 IR Inten    --     86.3353                77.2406                80.4826

                    142                    143                    144
                      A                      A                      A
 Frequencies --   2944.6886              2951.1071              2955.0497
 Red. masses --      1.0334                 1.0823                 1.0766
 Frc consts  --      5.2797                 5.5534                 5.5390
 IR Inten    --     56.8974                21.4546                 8.2463

                    145                    146                    147
                      A                      A                      A
 Frequencies --   2965.6263              2976.6564              2986.5236
 Red. masses --      1.0698                 1.0842                 1.1052
 Frc consts  --      5.5437                 5.6599                 5.8081
 IR Inten    --     47.0119                71.9714                64.4399

                    148                    149                    150
                      A                      A                      A
 Frequencies --   3008.6225              3010.6872              3014.7043
 Red. masses --      1.1032                 1.1027                 1.0934
 Frc consts  --      5.8837                 5.8890                 5.8549
 IR Inten    --     45.8674                55.2083                53.8076

                    151                    152                    153
                      A                      A                      A
 Frequencies --   3050.1990              3053.8997              3061.5524
 Red. masses --      1.0977                 1.0871                 1.1021
 Frc consts  --      6.0173                 5.9737                 6.0866
 IR Inten    --     19.6816                15.1181                47.7832

                    154                    155                    156
                      A                      A                      A
 Frequencies --   3062.7200              3064.6482              3072.7678
 Red. masses --      1.1020                 1.1035                 1.0982
 Frc consts  --      6.0905                 6.1065                 6.1092
 IR Inten    --     41.1167                38.5556                32.6902

                    157                    158                    159
                      A                      A                      A
 Frequencies --   3158.0216              3159.5893              3172.6924
 Red. masses --      1.0914                 1.0913                 1.0913
 Frc consts  --      6.4133                 6.4191                 6.4723
 IR Inten    --      0.4062                 4.4173                 6.2379

 - Thermochemistry -
 -------------------
 Temperature   298.150 Kelvin.  Pressure   1.00000 Atm.
 Atom     1 has atomic number  6 and mass  12.00000

 Molecular mass:   512.09396 amu.
 Principal axes and moments of inertia in atomic units:
                           1         2         3
     Eigenvalues --  ******************************
           X            0.99995   0.00924  -0.00333
           Y           -0.00915   0.99967   0.02388
           Z            0.00355  -0.02385   0.99971
 This molecule is an asymmetric top.
 Rotational symmetry number  1.
 Warning -- assumption of classical behavior for rotation
           may cause significant error
 Rotational temperatures (Kelvin)      0.00717     0.00409     0.00401
 Rotational constants (GHZ):           0.14935     0.08516     0.08356
 Zero-point vibrational energy    1044233.4 (Joules/Mol)
                                  249.57778 (Kcal/Mol)
 Warning -- explicit consideration of  57 degrees of freedom as
           vibrations may cause significant error
 Vibrational temperatures:     14.56    22.73    28.12    36.35    48.64
          (Kelvin)             57.07    70.99    73.38    86.95    98.43
                              103.90   118.63   134.06   139.06   145.09
                              158.86   183.62   209.42   220.14   233.01
                              239.22   254.13   269.14   276.09   300.15
                              322.21   325.63   340.63   350.35   369.65
                              386.01   396.30   406.32   407.87   432.62
                              455.09   473.00   485.76   497.58   504.24
                              567.37   584.48   599.38   625.98   638.57
                              656.69   672.58   683.23   717.89   727.10
                              746.42   779.79   789.07   796.56   826.88
                              845.14   891.53   928.33   931.12   938.12
                              977.73   988.79  1017.24  1073.30  1149.40
                             1163.56  1192.71  1216.70  1244.45  1283.02
                             1291.35  1297.76  1340.21  1356.32  1396.08
                             1414.85  1419.40  1447.32  1503.12  1542.27
                             1554.09  1557.89  1568.03  1569.42  1576.13
                             1586.62  1588.12  1595.53  1598.23  1611.06
                             1612.01  1631.79  1639.61  1646.76  1647.97
                             1651.98  1659.35  1661.22  1671.50  1683.09
                             1696.59  1705.71  1718.19  1757.63  1780.56
                             1807.93  1822.01  1847.23  1861.53  1866.37
                             1895.88  1899.56  1907.04  1919.16  1933.27
                             1956.68  1968.16  1978.22  1984.47  1994.22
                             2064.26  2068.48  2071.86  2075.12  2080.16
                             2092.13  2092.33  2095.06  2098.13  2103.44
                             2112.91  2133.74  2138.14  2139.80  2141.20
                             2295.27  2327.38  4181.85  4214.99  4221.84
                             4231.50  4236.75  4245.98  4251.66  4266.87
                             4282.74  4296.94  4328.74  4331.71  4337.49
                             4388.56  4393.88  4404.89  4406.57  4409.35
                             4421.03  4543.69  4545.94  4564.80

 Zero-point correction=                           0.397728 (Hartree/Particle)
 Thermal correction to Energy=                    0.432206
 Thermal correction to Enthalpy=                  0.433150
 Thermal correction to Gibbs Free Energy=         0.326923
 Sum of electronic and zero-point Energies=          -2297.820892
 Sum of electronic and thermal Energies=             -2297.786414
 Sum of electronic and thermal Enthalpies=           -2297.785470
 Sum of electronic and thermal Free Energies=        -2297.891697

                     E (Thermal)             CV                S
                      KCal/Mol        Cal/Mol-Kelvin    Cal/Mol-Kelvin
 Total                  271.213            124.669            223.575
 Electronic               0.000              0.000              0.000
 Translational            0.889              2.981             44.587
 Rotational               0.889              2.981             36.957
 Vibrational            269.436            118.707            142.031
 Vibration     1          0.593              1.987              7.988
 Vibration     2          0.593              1.986              7.102
 Vibration     3          0.593              1.986              6.680
 Vibration     4          0.593              1.985              6.170
 Vibration     5          0.594              1.983              5.593
 Vibration     6          0.594              1.981              5.276
 Vibration     7          0.595              1.978              4.844
 Vibration     8          0.595              1.977              4.778
 Vibration     9          0.597              1.973              4.443
 Vibration    10          0.598              1.969              4.198
 Vibration    11          0.598              1.967              4.092
 Vibration    12          0.600              1.961              3.832
 Vibration    13          0.602              1.954              3.592
 Vibration    14          0.603              1.952              3.521
 Vibration    15          0.604              1.948              3.438
 Vibration    16          0.606              1.941              3.262
 Vibration    17          0.611              1.926              2.982
 Vibration    18          0.617              1.907              2.730
 Vibration    19          0.619              1.899              2.635
 Vibration    20          0.622              1.889              2.527
 Vibration    21          0.624              1.884              2.477
 Vibration    22          0.628              1.871              2.364
 Vibration    23          0.632              1.858              2.257
 Vibration    24          0.634              1.851              2.209
 Vibration    25          0.642              1.828              2.056
 Vibration    26          0.649              1.805              1.927
 Vibration    27          0.650              1.801              1.908
 Vibration    28          0.656              1.784              1.827
 Vibration    29          0.659              1.773              1.777
 Vibration    30          0.667              1.751              1.683
 Vibration    31          0.673              1.731              1.607
 Vibration    32          0.677              1.719              1.562
 Vibration    33          0.681              1.706              1.519
 Vibration    34          0.682              1.704              1.513
 Vibration    35          0.693              1.672              1.413
 Vibration    36          0.703              1.642              1.329
 Vibration    37          0.712              1.618              1.266
 Vibration    38          0.718              1.600              1.223
 Vibration    39          0.724              1.584              1.185
 Vibration    40          0.727              1.574              1.164
 Vibration    41          0.761              1.482              0.984
 Vibration    42          0.771              1.457              0.940
 Vibration    43          0.780              1.434              0.904
 Vibration    44          0.796              1.394              0.842
 Vibration    45          0.803              1.375              0.815
 Vibration    46          0.815              1.347              0.777
 Vibration    47          0.825              1.322              0.745
 Vibration    48          0.832              1.306              0.724
 Vibration    49          0.854              1.252              0.661
 Vibration    50          0.861              1.238              0.645
 Vibration    51          0.874              1.208              0.613
 Vibration    52          0.897              1.157              0.561
 Vibration    53          0.904              1.143              0.547
 Vibration    54          0.909              1.132              0.537
 Vibration    55          0.931              1.086              0.495
 Vibration    56          0.945              1.059              0.472
 Vibration    57          0.980              0.990              0.417

                           ! Non-Optimized Parameters !
 Normal termination of Gaussian 16 at Wed Jun  5 17:37:32 2019.
