 Gaussian 16, Revision A.03,
 Gaussian 16:  AS64L-G16RevA.03 25-Dec-2016

 ----------------------------------------------------------------------
 #p opt freq=noraman pop=none 6-31g* scrf=(pcm,solvent=tetrahydrofuran)
  b3lyp
 ----------------------------------------------------------------------

 -----
 title
 -----
 Symbolic Z-matrix:
 Charge =  0 Multiplicity = 1

 SCF Done:  E(RB3LYP) =  -2298.07580995     A.U. after   13 cycles
 Optimization completed.
    -- Stationary point found.
 Normal termination of Gaussian 16 at Wed Jun  5 14:47:54 2019.

 --------------------------------------------------------------------
 #P Geom=AllCheck Guess=TCheck SCRF=Check GenChk RB3LYP/6-31G(d) Freq
 --------------------------------------------------------------------

 Structure from the checkpoint file:  "/scratch/users/ekwan/clay_new-glu_gluC6-bisCF3-sm-b3lyp-631gd-pcm_thf/Gau-13405.chk"
 -----
 title
 -----
 Charge =  0 Multiplicity = 1

                         Standard orientation:
 ---------------------------------------------------------------------
 Center     Atomic      Atomic             Coordinates (Angstroms)
 Number     Number       Type             X           Y           Z
 ---------------------------------------------------------------------
      1          6           0        3.556631   -0.256942    0.728768
      2          6           0        3.350841   -0.565606   -0.760532
      3          6           0        1.868708   -0.423863   -1.163579
      4          6           0        1.418040    1.108784    0.631961
      5          6           0        2.881641    1.071098    1.096604
      6          1           0        1.735263   -0.494130   -2.242581
      7          1           0        3.894531    0.196972   -1.340880
      8          1           0        3.105471   -1.057764    1.330603
      9          1           0        0.846810    0.364518    1.203429
     10          1           0        3.422568    1.891498    0.608768
     11          8           0        1.317855    0.791590   -0.777533
     12          8           0        1.159362   -1.546606   -0.546163
     13          8           0        3.863599   -1.850440   -1.037887
     14          8           0        4.940103   -0.135312    1.028657
     15          8           0        2.875812    1.245432    2.507462
     16          6           0        0.757410    2.468241    0.858096
     17          1           0        0.686460    2.614196    1.939845
     18          1           0       -0.259203    2.450172    0.442266
     19          8           0        1.485397    3.574970    0.353263
     20         16           0       -0.144402   -2.186519   -1.301437
     21          8           0       -0.256788   -3.535521   -0.762065
     22          8           0       -0.019594   -1.949319   -2.740012
     23          6           0       -1.515031   -1.210841   -0.683287
     24          6           0       -2.231881   -1.675363    0.417262
     25          6           0       -1.831273   -0.009280   -1.314610
     26          6           0       -3.292799   -0.905943    0.896967
     27          1           0       -1.970493   -2.618001    0.883267
     28          6           0       -2.885752    0.751599   -0.810798
     29          1           0       -1.271237    0.325971   -2.178807
     30          6           0       -3.618972    0.307957    0.291146
     31          1           0       -4.439833    0.903780    0.673057
     32          6           0        4.152283   -2.096628   -2.410492
     33          1           0        3.242016   -2.153431   -3.022237
     34          1           0        4.813145   -1.321386   -2.823215
     35          1           0        4.661289   -3.061986   -2.451970
     36          6           0        5.545992   -1.308017    1.563465
     37          1           0        6.585369   -1.047642    1.780595
     38          1           0        5.054247   -1.617848    2.496740
     39          1           0        5.518373   -2.138127    0.850059
     40          6           0        3.835009    2.179594    2.994012
     41          1           0        3.707871    2.218427    4.079202
     42          1           0        4.856327    1.861785    2.757388
     43          1           0        3.660080    3.181023    2.576898
     44          6           0        1.244707    3.879786   -1.016742
     45          1           0        1.699429    4.856380   -1.204113
     46          1           0        0.166519    3.940613   -1.223198
     47          1           0        1.689235    3.137834   -1.689715
     48          6           0       -4.128333   -1.417275    2.044560
     49          9           0       -3.415288   -2.220466    2.860104
     50          9           0       -5.185357   -2.134442    1.602650
     51          9           0       -4.619822   -0.404976    2.789326
     52          6           0       -3.188796    2.094812   -1.424958
     53          9           0       -2.455497    3.076651   -0.839366
     54          9           0       -4.484279    2.433980   -1.278274
     55          9           0       -2.898683    2.120412   -2.740576
 ---------------------------------------------------------------------

 SCF Done:  E(RB3LYP) =  -2298.07580995     A.U. after    1 cycles

 Isotropic polarizability for W=    0.000000      276.81 Bohr**3.
 End of Minotr F.D. properties file   721 does not exist.

                      1                      2                      3
                      A                      A                      A
 Frequencies --     11.2399                16.1848                18.7345
 Red. masses --      8.9048                 6.7871                16.7294
 Frc consts  --      0.0007                 0.0010                 0.0035
 IR Inten    --      0.2330                 0.2944                 0.0213

                      4                      5                      6
                      A                      A                      A
 Frequencies --     27.8432                35.0582                42.3440
 Red. masses --     11.9103                 4.5844                 5.7692
 Frc consts  --      0.0054                 0.0033                 0.0061
 IR Inten    --      0.0084                 0.1710                 0.6395

                      7                      8                      9
                      A                      A                      A
 Frequencies --     50.5694                53.6531                57.3016
 Red. masses --      3.7611                 3.9972                 4.4233
 Frc consts  --      0.0057                 0.0068                 0.0086
 IR Inten    --      1.2656                 2.2644                 1.3010

                     10                     11                     12
                      A                      A                      A
 Frequencies --     70.4225                73.2953                81.1104
 Red. masses --      3.4465                 3.2160                 3.0624
 Frc consts  --      0.0101                 0.0102                 0.0119
 IR Inten    --      4.0377                 3.5906                 2.2168

                     13                     14                     15
                      A                      A                      A
 Frequencies --     84.3241                99.0221               102.2155
 Red. masses --      2.8663                11.2424                 6.8534
 Frc consts  --      0.0120                 0.0649                 0.0422
 IR Inten    --      4.8731                 3.0805                 4.1913

                     16                     17                     18
                      A                      A                      A
 Frequencies --    112.2504               117.0450               149.4820
 Red. masses --      2.8594                 5.5289                 7.3284
 Frc consts  --      0.0212                 0.0446                 0.0965
 IR Inten    --      2.7084                 2.4826                 0.2308

                     19                     20                     21
                      A                      A                      A
 Frequencies --    154.6859               160.9507               167.4965
 Red. masses --      1.3173                 2.1798                 2.4934
 Frc consts  --      0.0186                 0.0333                 0.0412
 IR Inten    --      0.4216                 0.3581                 1.0402

                     22                     23                     24
                      A                      A                      A
 Frequencies --    175.7290               184.4085               190.8744
 Red. masses --      1.8572                 2.9059                 2.0986
 Frc consts  --      0.0338                 0.0582                 0.0450
 IR Inten    --      2.0954                 5.1753                 1.6961

                     25                     26                     27
                      A                      A                      A
 Frequencies --    197.8035               223.3328               237.2062
 Red. masses --      1.7194                 2.9351                12.0678
 Frc consts  --      0.0396                 0.0863                 0.4001
 IR Inten    --      0.3608                11.8226                 0.4190

                     28                     29                     30
                      A                      A                      A
 Frequencies --    243.8704               253.1454               255.7228
 Red. masses --      4.1691                 3.7492                 5.6280
 Frc consts  --      0.1461                 0.1416                 0.2168
 IR Inten    --      5.2219                10.0428                10.4329

                     31                     32                     33
                      A                      A                      A
 Frequencies --    279.3458               285.6753               289.8066
 Red. masses --      9.7112                 5.4042                 9.5779
 Frc consts  --      0.4465                 0.2599                 0.4740
 IR Inten    --      3.1934                13.1690                 3.4680

                     34                     35                     36
                      A                      A                      A
 Frequencies --    291.0401               312.9264               321.1688
 Red. masses --      8.5313                 5.5197                 4.1099
 Frc consts  --      0.4258                 0.3185                 0.2498
 IR Inten    --      7.5584                 0.2864                 4.9198

                     37                     38                     39
                      A                      A                      A
 Frequencies --    341.2232               349.3366               356.7564
 Red. masses --      7.2437                 7.3640                 4.3839
 Frc consts  --      0.4969                 0.5295                 0.3287
 IR Inten    --      0.7449                 6.7768                 5.3734

                     40                     41                     42
                      A                      A                      A
 Frequencies --    363.5021               409.7791               417.2492
 Red. masses --      9.5012                10.1427                 8.9034
 Frc consts  --      0.7397                 1.0035                 0.9133
 IR Inten    --     14.0127                15.5917                 7.3866

                     43                     44                     45
                      A                      A                      A
 Frequencies --    441.9663               449.5982               458.1331
 Red. masses --      2.3804                 4.3368                 8.6168
 Frc consts  --      0.2740                 0.5165                 1.0656
 IR Inten    --      7.2156                13.1438                13.8900

                     46                     47                     48
                      A                      A                      A
 Frequencies --    468.2469               492.1840               496.1827
 Red. masses --      4.2565                 7.8870                11.8673
 Frc consts  --      0.5499                 1.1257                 1.7214
 IR Inten    --      9.5680                19.4113                 1.2660

                     49                     50                     51
                      A                      A                      A
 Frequencies --    519.6891               524.1285               537.4914
 Red. masses --      5.1844                10.8262                 4.5354
 Frc consts  --      0.8250                 1.7523                 0.7720
 IR Inten    --     41.6076                23.3927                17.1366

                     52                     53                     54
                      A                      A                      A
 Frequencies --    563.8999               564.7506               575.4869
 Red. masses --     14.0279                 3.9077                11.5918
 Frc consts  --      2.6281                 0.7343                 2.2619
 IR Inten    --     37.4936                37.5814               252.4575

                     55                     56                     57
                      A                      A                      A
 Frequencies --    599.9628               609.3054               624.0023
 Red. masses --      6.7906                 7.9049                 5.5836
 Frc consts  --      1.4401                 1.7291                 1.2810
 IR Inten    --     38.2233                 1.9148                11.8482

                     58                     59                     60
                      A                      A                      A
 Frequencies --    671.9220               675.4555               677.1825
 Red. masses --      7.4421                 7.9091                 9.9033
 Frc consts  --      1.9796                 2.1260                 2.6757
 IR Inten    --      0.7899                70.1889                50.9402

                     61                     62                     63
                      A                      A                      A
 Frequencies --    705.4714               712.1829               724.7468
 Red. masses --      2.5644                 9.3432                 5.5219
 Frc consts  --      0.7520                 2.7921                 1.7089
 IR Inten    --     22.9535                 7.3269                93.2732

                     64                     65                     66
                      A                      A                      A
 Frequencies --    794.7968               827.6112               835.6084
 Red. masses --      9.4638                 4.3214                 7.6836
 Frc consts  --      3.5223                 1.7439                 3.1610
 IR Inten    --    559.8730                78.2362                66.3814

                     67                     68                     69
                      A                      A                      A
 Frequencies --    855.5000               871.0614               906.7657
 Red. masses --     11.9969                 4.1819                 1.5914
 Frc consts  --      5.1732                 1.8695                 0.7709
 IR Inten    --     28.3041                39.9650                67.5395

                     70                     71                     72
                      A                      A                      A
 Frequencies --    920.3930               941.5130               955.0342
 Red. masses --      2.8863                 1.4197                 1.3766
 Frc consts  --      1.4406                 0.7415                 0.7398
 IR Inten    --     22.5344                 8.3352                 7.7152

                     73                     74                     75
                      A                      A                      A
 Frequencies --    959.6747               970.7250              1000.5883
 Red. masses --      4.7483                 4.3615                 4.2983
 Frc consts  --      2.5766                 2.4214                 2.5355
 IR Inten    --      5.8618                37.6538                50.9418

                     76                     77                     78
                      A                      A                      A
 Frequencies --   1013.6306              1015.5448              1037.1670
 Red. masses --      6.0269                 4.5971                 3.5068
 Frc consts  --      3.6484                 2.7934                 2.2226
 IR Inten    --      3.8348                16.0595               136.9274

                     79                     80                     81
                      A                      A                      A
 Frequencies --   1077.9971              1108.0973              1114.3032
 Red. masses --      3.2354                11.9636                 3.1002
 Frc consts  --      2.2152                 8.6550                 2.2680
 IR Inten    --     19.4223                70.8875               139.5945

                     82                     83                     84
                      A                      A                      A
 Frequencies --   1120.0218              1122.2099              1127.8747
 Red. masses --      2.9836                 2.9561                 3.9130
 Frc consts  --      2.2052                 2.1934                 2.9328
 IR Inten    --     30.0791               115.5105               282.3498

                     85                     86                     87
                      A                      A                      A
 Frequencies --   1133.2962              1141.3574              1149.1004
 Red. masses --      2.0911                 4.2672                 3.7410
 Frc consts  --      1.5824                 3.2752                 2.9104
 IR Inten    --     36.0296                36.1520               114.5025

                     88                     89                     90
                      A                      A                      A
 Frequencies --   1149.4726              1156.1953              1167.9633
 Red. masses --      4.0372                 8.9422                 3.8794
 Frc consts  --      3.1429                 7.0430                 3.1180
 IR Inten    --    583.4402               395.0092                80.2606

                     91                     92                     93
                      A                      A                      A
 Frequencies --   1172.6317              1179.1742              1180.6989
 Red. masses --     12.4654                 2.9013                 2.3969
 Frc consts  --     10.0990                 2.3768                 1.9687
 IR Inten    --    335.2845               122.4800                94.0477

                     94                     95                     96
                      A                      A                      A
 Frequencies --   1184.9786              1186.1272              1188.7213
 Red. masses --      1.3325                 1.6082                 1.3609
 Frc consts  --      1.1024                 1.3330                 1.1330
 IR Inten    --      7.4355                23.8251                25.1960

                     97                     98                     99
                      A                      A                      A
 Frequencies --   1190.2882              1202.7984              1209.4954
 Red. masses --      1.2941                 7.0495                 5.9169
 Frc consts  --      1.0802                 6.0089                 5.0998
 IR Inten    --     15.7789               158.2780               266.7413

                    100                    101                    102
                      A                      A                      A
 Frequencies --   1216.0616              1222.8963              1229.9582
 Red. masses --      1.3772                 1.4686                 1.6406
 Frc consts  --      1.1999                 1.2940                 1.4623
 IR Inten    --     38.5099                28.6164                13.2177

                    103                    104                    105
                      A                      A                      A
 Frequencies --   1238.1637              1267.5083              1284.1075
 Red. masses --      1.6067                 1.6983                 3.4117
 Frc consts  --      1.4512                 1.6076                 3.3145
 IR Inten    --     23.4612                 5.7328               769.4489

                    106                    107                    108
                      A                      A                      A
 Frequencies --   1308.3956              1311.9533              1334.0187
 Red. masses --      1.4300                 1.4297                13.9919
 Frc consts  --      1.4423                 1.4498                14.6707
 IR Inten    --      1.2193                11.5415               259.8375

                    109                    110                    111
                      A                      A                      A
 Frequencies --   1341.2086              1346.4394              1369.8885
 Red. masses --      1.3454                 1.2131                 4.7269
 Frc consts  --      1.4259                 1.2957                 5.2264
 IR Inten    --      5.7622                11.1001               201.6405

                    112                    113                    114
                      A                      A                      A
 Frequencies --   1372.7593              1374.4730              1376.9683
 Red. masses --      1.2982                 4.3052                 1.2361
 Frc consts  --      1.4414                 4.7920                 1.3809
 IR Inten    --     20.7595                 1.0864                 8.4057

                    115                    116                    117
                      A                      A                      A
 Frequencies --   1394.9874              1402.2397              1418.4820
 Red. masses --      1.3071                 1.3796                 1.2988
 Frc consts  --      1.4986                 1.5983                 1.5397
 IR Inten    --      2.5190                14.3377                 8.3833

                    118                    119                    120
                      A                      A                      A
 Frequencies --   1426.1982              1435.9168              1445.4650
 Red. masses --      1.3600                 1.2913                 1.3063
 Frc consts  --      1.6298                 1.5687                 1.6081
 IR Inten    --     30.6556                13.5506                12.8369

                    121                    122                    123
                      A                      A                      A
 Frequencies --   1487.4888              1491.3086              1495.1138
 Red. masses --      3.6739                 1.1026                 1.1591
 Frc consts  --      4.7894                 1.4448                 1.5266
 IR Inten    --      6.5422                 3.0309                 0.4843

                    124                    125                    126
                      A                      A                      A
 Frequencies --   1495.9304              1497.2203              1500.9172
 Red. masses --      4.0497                 1.1621                 1.1199
 Frc consts  --      5.3394                 1.5349                 1.4864
 IR Inten    --      1.2517                 1.7073                 5.1751

                    127                    128                    129
                      A                      A                      A
 Frequencies --   1507.7413              1509.7814              1510.0401
 Red. masses --      1.0536                 1.0573                 1.0554
 Frc consts  --      1.4111                 1.4199                 1.4179
 IR Inten    --      2.4942                 4.6481                 6.9890

                    130                    131                    132
                      A                      A                      A
 Frequencies --   1515.6159              1519.4157              1529.8383
 Red. masses --      1.1273                 1.0824                 1.0542
 Frc consts  --      1.5257                 1.4722                 1.4537
 IR Inten    --      3.8177                 4.5452                12.1424

                    133                    134                    135
                      A                      A                      A
 Frequencies --   1536.2139              1536.8164              1538.9773
 Red. masses --      1.0516                 1.0501                 1.0580
 Frc consts  --      1.4621                 1.4613                 1.4764
 IR Inten    --      8.1080                 7.2440                 9.6010

                    136                    137                    138
                      A                      A                      A
 Frequencies --   1648.1133              1669.7280              3007.5801
 Red. masses --      6.1468                 5.8540                 1.0809
 Frc consts  --      9.8373                 9.6160                 5.7609
 IR Inten    --     15.5129                20.0284                26.7818

                    139                    140                    141
                      A                      A                      A
 Frequencies --   3020.2723              3023.0092              3025.3419
 Red. masses --      1.0368                 1.0410                 1.0370
 Frc consts  --      5.5725                 5.6052                 5.5924
 IR Inten    --     81.9933                63.1640                58.3571

                    142                    143                    144
                      A                      A                      A
 Frequencies --   3027.1064              3043.1040              3043.9025
 Red. masses --      1.0372                 1.0759                 1.0832
 Frc consts  --      5.5996                 5.8701                 5.9134
 IR Inten    --     68.9744                 7.1812                20.5306

                    145                    146                    147
                      A                      A                      A
 Frequencies --   3053.8553              3066.8654              3076.4165
 Red. masses --      1.0710                 1.0847                 1.1060
 Frc consts  --      5.8849                 6.0111                 6.1674
 IR Inten    --     47.9211                68.0642                64.3198

                    148                    149                    150
                      A                      A                      A
 Frequencies --   3093.7954              3099.4116              3101.1744
 Red. masses --      1.0992                 1.0994                 1.0939
 Frc consts  --      6.1987                 6.2225                 6.1983
 IR Inten    --     50.4296                57.3864                50.3193

                    151                    152                    153
                      A                      A                      A
 Frequencies --   3122.2292              3136.9272              3141.3134
 Red. masses --      1.1002                 1.1036                 1.1041
 Frc consts  --      6.3191                 6.3985                 6.4192
 IR Inten    --     22.4265                49.5748                40.3014

                    154                    155                    156
                      A                      A                      A
 Frequencies --   3142.4658              3150.1415              3158.3732
 Red. masses --      1.1051                 1.0991                 1.0885
 Frc consts  --      6.4297                 6.4259                 6.3975
 IR Inten    --     38.2389                34.2285                 9.6250

                    157                    158                    159
                      A                      A                      A
 Frequencies --   3243.4750              3249.0842              3252.5509
 Red. masses --      1.0918                 1.0917                 1.0918
 Frc consts  --      6.7671                 6.7903                 6.8052
 IR Inten    --      0.8587                 6.7064                 4.1975

 - Thermochemistry -
 -------------------
 Temperature   298.150 Kelvin.  Pressure   1.00000 Atm.
 Atom     1 has atomic number  6 and mass  12.00000

 Molecular mass:   512.09396 amu.
 Principal axes and moments of inertia in atomic units:
                           1         2         3
     Eigenvalues --  ******************************
           X            0.99994  -0.00110   0.01091
           Y            0.00035   0.99762   0.06890
           Z           -0.01096  -0.06889   0.99756
 This molecule is an asymmetric top.
 Rotational symmetry number  1.
 Warning -- assumption of classical behavior for rotation
           may cause significant error
 Rotational temperatures (Kelvin)      0.00723     0.00382     0.00348
 Rotational constants (GHZ):           0.15073     0.07969     0.07245
 Zero-point vibrational energy    1078507.0 (Joules/Mol)
                                  257.76935 (Kcal/Mol)
 Warning -- explicit consideration of  56 degrees of freedom as
           vibrations may cause significant error
 Vibrational temperatures:     16.17    23.29    26.95    40.06    50.44
          (Kelvin)             60.92    72.76    77.19    82.44   101.32
                              105.46   116.70   121.32   142.47   147.07
                              161.50   168.40   215.07   222.56   231.57
                              240.99   252.83   265.32   274.63   284.60
                              321.33   341.29   350.88   364.22   367.93
                              401.92   411.02   416.97   418.74   450.23
                              462.09   490.94   502.62   513.29   523.00
                              589.58   600.33   635.89   646.87   659.15
                              673.70   708.14   713.90   747.72   754.10
                              773.33   811.33   812.55   828.00   863.21
                              876.65   897.80   966.75   971.83   974.31
                             1015.02  1024.67  1042.75  1143.54  1190.75
                             1202.25  1230.87  1253.26  1304.63  1324.24
                             1354.63  1374.08  1380.76  1396.66  1439.62
                             1458.39  1461.14  1492.25  1551.00  1594.30
                             1603.23  1611.46  1614.61  1622.76  1630.56
                             1642.16  1653.30  1653.83  1663.51  1680.44
                             1687.16  1696.57  1698.76  1704.92  1706.57
                             1710.30  1712.56  1730.56  1740.19  1749.64
                             1759.48  1769.64  1781.44  1823.66  1847.54
                             1882.49  1887.61  1919.36  1929.70  1937.23
                             1970.96  1975.09  1977.56  1981.15  2007.08
                             2017.51  2040.88  2051.98  2065.96  2079.70
                             2140.16  2145.66  2151.14  2152.31  2154.17
                             2159.49  2169.30  2172.24  2172.61  2180.63
                             2186.10  2201.10  2210.27  2211.14  2214.25
                             2371.27  2402.37  4327.24  4345.50  4349.44
                             4352.79  4355.33  4378.35  4379.50  4393.82
                             4412.54  4426.28  4451.28  4459.36  4461.90
                             4492.19  4513.34  4519.65  4521.31  4532.35
                             4544.19  4666.64  4674.71  4679.70

 Zero-point correction=                           0.410782 (Hartree/Particle)
 Thermal correction to Energy=                    0.444591
 Thermal correction to Enthalpy=                  0.445535
 Thermal correction to Gibbs Free Energy=         0.340474
 Sum of electronic and zero-point Energies=          -2297.665028
 Sum of electronic and thermal Energies=             -2297.631219
 Sum of electronic and thermal Enthalpies=           -2297.630275
 Sum of electronic and thermal Free Energies=        -2297.735336

                     E (Thermal)             CV                S
                      KCal/Mol        Cal/Mol-Kelvin    Cal/Mol-Kelvin
 Total                  278.985            121.430            221.120
 Electronic               0.000              0.000              0.000
 Translational            0.889              2.981             44.587
 Rotational               0.889              2.981             37.155
 Vibrational            277.207            115.468            139.378
 Vibration     1          0.593              1.987              7.779
 Vibration     2          0.593              1.986              7.055
 Vibration     3          0.593              1.986              6.764
 Vibration     4          0.593              1.984              5.977
 Vibration     5          0.594              1.982              5.520
 Vibration     6          0.595              1.980              5.146
 Vibration     7          0.595              1.977              4.795
 Vibration     8          0.596              1.976              4.678
 Vibration     9          0.596              1.975              4.548
 Vibration    10          0.598              1.968              4.142
 Vibration    11          0.599              1.967              4.063
 Vibration    12          0.600              1.962              3.864
 Vibration    13          0.601              1.960              3.788
 Vibration    14          0.604              1.950              3.473
 Vibration    15          0.604              1.947              3.412
 Vibration    16          0.607              1.939              3.230
 Vibration    17          0.608              1.935              3.149
 Vibration    18          0.618              1.903              2.679
 Vibration    19          0.620              1.897              2.614
 Vibration    20          0.622              1.890              2.539
 Vibration    21          0.624              1.882              2.463
 Vibration    22          0.628              1.872              2.373
 Vibration    23          0.631              1.861              2.283
 Vibration    24          0.634              1.852              2.219
 Vibration    25          0.637              1.843              2.153
 Vibration    26          0.649              1.806              1.932
 Vibration    27          0.656              1.784              1.824
 Vibration    28          0.659              1.773              1.774
 Vibration    29          0.664              1.757              1.709
 Vibration    30          0.666              1.753              1.691
 Vibration    31          0.680              1.712              1.538
 Vibration    32          0.683              1.700              1.499
 Vibration    33          0.686              1.693              1.475
 Vibration    34          0.687              1.690              1.468
 Vibration    35          0.701              1.649              1.347
 Vibration    36          0.707              1.633              1.304
 Vibration    37          0.721              1.593              1.206
 Vibration    38          0.727              1.577              1.169
 Vibration    39          0.732              1.561              1.136
 Vibration    40          0.737              1.547              1.107
 Vibration    41          0.774              1.449              0.927
 Vibration    42          0.780              1.433              0.901
 Vibration    43          0.802              1.379              0.820
 Vibration    44          0.808              1.362              0.797
 Vibration    45          0.816              1.343              0.772
 Vibration    46          0.825              1.320              0.742
 Vibration    47          0.848              1.267              0.678
 Vibration    48          0.852              1.258              0.668
 Vibration    49          0.875              1.206              0.611
 Vibration    50          0.879              1.197              0.600
 Vibration    51          0.893              1.167              0.571
 Vibration    52          0.920              1.109              0.516
 Vibration    53          0.921              1.108              0.514
 Vibration    54          0.932              1.084              0.494
 Vibration    55          0.958              1.032              0.450
 Vibration    56          0.968              1.012              0.434

                           ! Non-Optimized Parameters !
 Normal termination of Gaussian 16 at Wed Jun  5 15:34:17 2019.
