 Gaussian 16, Revision A.03,
 Gaussian 16:  AS64L-G16RevA.03 25-Dec-2016

 ----------------------------------------------------------------------
 #p opt freq=noraman pop=none 6-31g* scrf=(pcm,solvent=tetrahydrofuran)
  m062x
 ----------------------------------------------------------------------

 -----
 title
 -----
 Symbolic Z-matrix:
 Charge =  0 Multiplicity = 1

 SCF Done:  E(RM062X) =  -2297.35481877     A.U. after   13 cycles
 SCF Done:  E(RM062X) =  -2297.35481770     A.U. after    7 cycles
 SCF Done:  E(RM062X) =  -2297.35481851     A.U. after    7 cycles
 Optimization completed.
    -- Stationary point found.
 Normal termination of Gaussian 16 at Wed Jun  5 17:53:19 2019.

 --------------------------------------------------------------------
 #P Geom=AllCheck Guess=TCheck SCRF=Check GenChk RM062X/6-31G(d) Freq
 --------------------------------------------------------------------

 Structure from the checkpoint file:  "/scratch/users/ekwan/clay_new-glu_gluC6-bisCF3-sm-m062x-631gd-pcm_thf/Gau-38043.chk"
 -----
 title
 -----
 Charge =  0 Multiplicity = 1

                         Standard orientation:
 ---------------------------------------------------------------------
 Center     Atomic      Atomic             Coordinates (Angstroms)
 Number     Number       Type             X           Y           Z
 ---------------------------------------------------------------------
      1          6           0        3.381359    0.299553    0.638774
      2          6           0        3.310964   -0.460632   -0.683226
      3          6           0        1.854797   -0.740277   -1.079116
      4          6           0        1.033870    1.090489    0.199260
      5          6           0        2.446478    1.501516    0.607275
      6          1           0        1.773628   -1.152255   -2.086477
      7          1           0        3.725752    0.183803   -1.476743
      8          1           0        3.065059   -0.369609    1.453113
      9          1           0        0.617841    0.424763    0.970196
     10          1           0        2.825788    2.225526   -0.127684
     11          8           0        1.059705    0.393663   -1.055736
     12          8           0        1.376140   -1.732875   -0.139251
     13          8           0        4.065251   -1.633687   -0.553763
     14          8           0        4.687752    0.775394    0.868174
     15          8           0        2.366137    2.085379    1.886984
     16          6           0        0.110113    2.294201    0.067850
     17          1           0       -0.119457    2.646873    1.076200
     18          1           0       -0.823543    1.977305   -0.419472
     19          8           0        0.676413    3.388945   -0.611638
     20         16           0        0.088254   -2.609554   -0.555048
     21          8           0        0.050396   -3.684743    0.409359
     22          8           0        0.150546   -2.868018   -1.981016
     23          6           0       -1.272949   -1.513323   -0.238951
     24          6           0       -1.768411   -1.422130    1.056216
     25          6           0       -1.789307   -0.760576   -1.286660
     26          6           0       -2.814170   -0.537583    1.300594
     27          1           0       -1.349958   -2.030182    1.852120
     28          6           0       -2.835431    0.113106   -1.013946
     29          1           0       -1.383317   -0.856679   -2.288137
     30          6           0       -3.350746    0.232325    0.273691
     31          1           0       -4.165380    0.920639    0.474697
     32          6           0        4.185810   -2.381950   -1.749211
     33          1           0        3.245689   -2.886350   -2.007259
     34          1           0        4.493385   -1.741841   -2.586537
     35          1           0        4.951929   -3.137580   -1.573405
     36          6           0        5.461589   -0.042025    1.727939
     37          1           0        6.435142    0.441031    1.828307
     38          1           0        4.993880   -0.114952    2.718334
     39          1           0        5.590585   -1.046246    1.313616
     40          6           0        3.049338    3.322479    1.990377
     41          1           0        2.915484    3.673206    3.015230
     42          1           0        4.117058    3.196354    1.782584
     43          1           0        2.623214    4.056536    1.295319
     44          6           0        0.779469    3.211676   -2.012543
     45          1           0        0.979057    4.194678   -2.443034
     46          1           0       -0.158757    2.817614   -2.424350
     47          1           0        1.592513    2.527077   -2.279224
     48          6           0       -3.411438   -0.452423    2.680166
     49          9           0       -2.514688   -0.766510    3.621915
     50          9           0       -4.444674   -1.294161    2.816043
     51          9           0       -3.867450    0.779466    2.937586
     52          6           0       -3.367006    0.999584   -2.107179
     53          9           0       -2.731773    2.184821   -2.118074
     54          9           0       -4.669119    1.255431   -1.943325
     55          9           0       -3.199222    0.450577   -3.314079
 ---------------------------------------------------------------------

 SCF Done:  E(RM062X) =  -2297.35481851     A.U. after    1 cycles

 Isotropic polarizability for W=    0.000000      267.52 Bohr**3.
 End of Minotr F.D. properties file   721 does not exist.

                      1                      2                      3
                      A                      A                      A
 Frequencies --     12.5703                18.4457                24.7783
 Red. masses --      9.8794                 8.9294                 9.3618
 Frc consts  --      0.0009                 0.0018                 0.0034
 IR Inten    --      0.1755                 0.0893                 0.1315

                      4                      5                      6
                      A                      A                      A
 Frequencies --     27.6085                40.5713                48.6769
 Red. masses --     16.7100                 5.0790                 6.7912
 Frc consts  --      0.0075                 0.0049                 0.0095
 IR Inten    --      0.0518                 0.3169                 0.0654

                      7                      8                      9
                      A                      A                      A
 Frequencies --     55.1661                63.6353                68.8586
 Red. masses --      4.8995                 3.7714                 3.7091
 Frc consts  --      0.0088                 0.0090                 0.0104
 IR Inten    --      0.9251                 0.4969                 0.7396

                     10                     11                     12
                      A                      A                      A
 Frequencies --     76.2590                82.3411                86.0354
 Red. masses --      2.9763                 3.2070                 2.7280
 Frc consts  --      0.0102                 0.0128                 0.0119
 IR Inten    --      5.6988                 4.4333                 5.4564

                     13                     14                     15
                      A                      A                      A
 Frequencies --     99.3054               103.3712               108.1597
 Red. masses --      5.2722                13.0653                 5.6487
 Frc consts  --      0.0306                 0.0823                 0.0389
 IR Inten    --      2.5499                 3.9714                 2.6463

                     16                     17                     18
                      A                      A                      A
 Frequencies --    116.4282               134.9115               154.3881
 Red. masses --      6.5291                 2.3752                 7.4085
 Frc consts  --      0.0521                 0.0255                 0.1040
 IR Inten    --      0.9986                 3.9168                 0.4201

                     19                     20                     21
                      A                      A                      A
 Frequencies --    159.8015               175.7795               180.5010
 Red. masses --      1.3076                 4.2741                 2.9232
 Frc consts  --      0.0197                 0.0778                 0.0561
 IR Inten    --      0.5013                 0.6767                 1.3928

                     22                     23                     24
                      A                      A                      A
 Frequencies --    185.2305               197.5360               208.0426
 Red. masses --      1.8415                 2.0514                 3.6715
 Frc consts  --      0.0372                 0.0472                 0.0936
 IR Inten    --      1.0541                 1.6625                12.2583

                     25                     26                     27
                      A                      A                      A
 Frequencies --    220.6731               239.8984               246.1820
 Red. masses --      1.7488                 8.7541                 1.6985
 Frc consts  --      0.0502                 0.2968                 0.0606
 IR Inten    --      3.7641                 0.3061                 2.4001

                     28                     29                     30
                      A                      A                      A
 Frequencies --    250.2071               260.3472               273.7590
 Red. masses --      3.1888                 5.3644                 3.5863
 Frc consts  --      0.1176                 0.2142                 0.1584
 IR Inten    --      3.4309                 5.2790                10.4363

                     31                     32                     33
                      A                      A                      A
 Frequencies --    285.8241               293.1834               297.1643
 Red. masses --     11.1491                 4.3468                10.7313
 Frc consts  --      0.5366                 0.2201                 0.5583
 IR Inten    --      3.8885                11.4478                 3.1816

                     34                     35                     36
                      A                      A                      A
 Frequencies --    300.5075               316.1125               336.5363
 Red. masses --      6.6869                 5.4273                 3.9965
 Frc consts  --      0.3558                 0.3195                 0.2667
 IR Inten    --     14.3598                 0.1840                 2.5009

                     37                     38                     39
                      A                      A                      A
 Frequencies --    349.1773               360.5678               369.0778
 Red. masses --      7.5669                 5.8963                 4.9000
 Frc consts  --      0.5436                 0.4517                 0.3933
 IR Inten    --      2.0884                 3.5879                 6.9671

                     40                     41                     42
                      A                      A                      A
 Frequencies --    378.6234               419.4151               429.7833
 Red. masses --      8.4761                10.1087                 9.1890
 Frc consts  --      0.7159                 1.0477                 1.0000
 IR Inten    --     15.9248                15.8653                 8.0209

                     43                     44                     45
                      A                      A                      A
 Frequencies --    437.3793               463.3524               475.0725
 Red. masses --      2.1955                 5.9123                 8.4987
 Frc consts  --      0.2475                 0.7479                 1.1301
 IR Inten    --     10.3049                 7.3083                18.3138

                     46                     47                     48
                      A                      A                      A
 Frequencies --    484.3633               501.7642               506.5341
 Red. masses --      3.9266                 7.6906                11.8255
 Frc consts  --      0.5428                 1.1408                 1.7877
 IR Inten    --     10.1023                11.2268                 1.3826

                     49                     50                     51
                      A                      A                      A
 Frequencies --    533.2890               539.7955               552.4518
 Red. masses --      5.2928                 6.5947                 5.6051
 Frc consts  --      0.8869                 1.1321                 1.0079
 IR Inten    --     52.5553                28.4486                10.0909

                     52                     53                     54
                      A                      A                      A
 Frequencies --    578.0696               580.1379               593.1798
 Red. masses --      5.1813                 7.5324                 9.6171
 Frc consts  --      1.0201                 1.4936                 1.9937
 IR Inten    --     47.6315                13.8632               246.6829

                     55                     56                     57
                      A                      A                      A
 Frequencies --    615.3080               622.7321               660.9114
 Red. masses --      6.5759                 8.2456                 5.5135
 Frc consts  --      1.4669                 1.8840                 1.4189
 IR Inten    --     34.8171                 2.7627                13.5441

                     58                     59                     60
                      A                      A                      A
 Frequencies --    687.5263               688.9736               701.3905
 Red. masses --      8.2020                11.7359                 5.5329
 Frc consts  --      2.2843                 3.2822                 1.6037
 IR Inten    --      7.8222                58.2915                22.8066

                     61                     62                     63
                      A                      A                      A
 Frequencies --    715.2481               732.6293               756.6094
 Red. masses --      2.4960                10.3030                 5.2719
 Frc consts  --      0.7523                 3.2582                 1.7781
 IR Inten    --     32.9859                 1.2738                35.1427

                     64                     65                     66
                      A                      A                      A
 Frequencies --    844.2200               864.2349               881.4493
 Red. masses --      5.7614                 4.3753                 6.9825
 Frc consts  --      2.4193                 1.9254                 3.1964
 IR Inten    --    115.7379                 6.1271               406.5862

                     67                     68                     69
                      A                      A                      A
 Frequencies --    882.8783               920.9286               927.6866
 Red. masses --     11.9564                 3.1512                 1.8600
 Frc consts  --      5.4910                 1.5746                 0.9431
 IR Inten    --     26.2238                95.7961               138.3709

                     70                     71                     72
                      A                      A                      A
 Frequencies --    956.4707               959.8720               969.7112
 Red. masses --      1.4706                 2.4450                 1.3753
 Frc consts  --      0.7927                 1.3273                 0.7620
 IR Inten    --      2.7771                24.4439                 8.2565

                     73                     74                     75
                      A                      A                      A
 Frequencies --   1006.4555              1009.7027              1017.1943
 Red. masses --      4.6112                 3.7879                 6.3645
 Frc consts  --      2.7521                 2.2753                 3.8799
 IR Inten    --     53.0990                24.2999                 2.3463

                     76                     77                     78
                      A                      A                      A
 Frequencies --   1049.2633              1058.6192              1075.5961
 Red. masses --      3.9619                 3.4638                 3.7999
 Frc consts  --      2.5699                 2.2871                 2.5902
 IR Inten    --     44.9720                13.3697               138.7129

                     79                     80                     81
                      A                      A                      A
 Frequencies --   1115.7463              1142.2793              1142.9467
 Red. masses --      2.7238                 2.1266                 2.8406
 Frc consts  --      1.9978                 1.6348                 2.1863
 IR Inten    --     16.9882                21.6174                42.9724

                     82                     83                     84
                      A                      A                      A
 Frequencies --   1149.1433              1151.5875              1155.9928
 Red. masses --      2.9365                 2.1169                 2.1225
 Frc consts  --      2.2847                 1.6540                 1.6711
 IR Inten    --     78.5569                83.2116                11.6718

                     85                     86                     87
                      A                      A                      A
 Frequencies --   1165.9425              1189.8221              1191.9318
 Red. masses --      2.2564                 1.3616                 1.6380
 Frc consts  --      1.8073                 1.1357                 1.3711
 IR Inten    --    181.8891                 4.6109                36.6506

                     88                     89                     90
                      A                      A                      A
 Frequencies --   1194.3143              1194.9483              1195.8656
 Red. masses --      2.2114                 1.9503                 1.6074
 Frc consts  --      1.8585                 1.6408                 1.3544
 IR Inten    --     93.2028               165.6933                40.5657

                     91                     92                     93
                      A                      A                      A
 Frequencies --   1196.8298              1200.8141              1207.1452
 Red. masses --      1.7233                 1.9695                 1.6119
 Frc consts  --      1.4544                 1.6732                 1.3839
 IR Inten    --    127.0972               266.1476                42.9914

                     94                     95                     96
                      A                      A                      A
 Frequencies --   1221.1629              1232.0577              1238.9436
 Red. masses --      2.5848                 2.5047                 7.8408
 Frc consts  --      2.2710                 2.2401                 7.0911
 IR Inten    --     95.0451               208.6636               439.6363

                     97                     98                     99
                      A                      A                      A
 Frequencies --   1240.0438              1243.2769              1253.7954
 Red. masses --      3.6597                 1.9458                12.6289
 Frc consts  --      3.3157                 1.7721                11.6968
 IR Inten    --    117.3425               107.9695               339.6107

                    100                    101                    102
                      A                      A                      A
 Frequencies --   1256.8228              1263.6730              1266.6588
 Red. masses --      2.0972                 2.7098                 5.7036
 Frc consts  --      1.9518                 2.5495                 5.3916
 IR Inten    --     25.7854                71.2262                83.0801

                    103                    104                    105
                      A                      A                      A
 Frequencies --   1277.0786              1283.3301              1303.4639
 Red. masses --      7.6299                 1.9351                 1.6036
 Frc consts  --      7.3317                 1.8777                 1.6053
 IR Inten    --    346.5748                21.4888                23.8178

                    106                    107                    108
                      A                      A                      A
 Frequencies --   1313.4339              1327.5560              1346.5282
 Red. masses --      1.5087                 3.7414                 1.2292
 Frc consts  --      1.5334                 3.8850                 1.3131
 IR Inten    --     11.6602               821.4643                17.4678

                    109                    110                    111
                      A                      A                      A
 Frequencies --   1360.8338              1369.0365              1380.3669
 Red. masses --      1.4860                 5.1282                 1.2493
 Frc consts  --      1.6214                 5.6629                 1.4025
 IR Inten    --      3.7806                72.4177                23.8128

                    112                    113                    114
                      A                      A                      A
 Frequencies --   1382.8797              1394.2023              1405.6050
 Red. masses --      1.3227                 4.8451                 1.4580
 Frc consts  --      1.4904                 5.5489                 1.6972
 IR Inten    --     13.8436               206.0563                20.8215

                    115                    116                    117
                      A                      A                      A
 Frequencies --   1415.9319              1419.5726              1424.6139
 Red. masses --      5.9058                 1.5519                 1.3515
 Frc consts  --      6.9762                 1.8426                 1.6161
 IR Inten    --    184.5003                25.1828                 3.8108

                    118                    119                    120
                      A                      A                      A
 Frequencies --   1442.4308              1444.5605              1457.2137
 Red. masses --      1.5614                 1.3949                 1.4700
 Frc consts  --      1.9141                 1.7150                 1.8391
 IR Inten    --     27.6611                25.6077                10.7697

                    121                    122                    123
                      A                      A                      A
 Frequencies --   1490.2139              1500.7693              1502.5827
 Red. masses --      1.0866                 1.1908                 1.1894
 Frc consts  --      1.4218                 1.5802                 1.5821
 IR Inten    --      2.3318                 2.0563                 0.3969

                    124                    125                    126
                      A                      A                      A
 Frequencies --   1506.5283              1512.1328              1513.6277
 Red. masses --      1.1427                 1.1169                 4.1673
 Frc consts  --      1.5280                 1.5047                 5.6252
 IR Inten    --      5.4087                12.8946                 0.5355

                    127                    128                    129
                      A                      A                      A
 Frequencies --   1514.5265              1517.7181              1521.7005
 Red. masses --      1.0524                 1.0524                 1.0988
 Frc consts  --      1.4222                 1.4283                 1.4991
 IR Inten    --      2.6285                 1.4482                 1.2116

                    130                    131                    132
                      A                      A                      A
 Frequencies --   1524.1012              1526.1144              1535.1826
 Red. masses --      1.0906                 4.6177                 1.0603
 Frc consts  --      1.4926                 6.3365                 1.4723
 IR Inten    --      7.2356                 0.2048                 9.7875

                    133                    134                    135
                      A                      A                      A
 Frequencies --   1537.9629              1539.1980              1539.3710
 Red. masses --      1.0495                 1.0491                 1.0479
 Frc consts  --      1.4625                 1.4644                 1.4630
 IR Inten    --      9.0481                 5.9518                 9.1566

                    136                    137                    138
                      A                      A                      A
 Frequencies --   1691.6252              1711.3959              3031.3448
 Red. masses --      6.9614                 6.6055                 1.0825
 Frc consts  --     11.7369                11.3988                 5.8609
 IR Inten    --     25.8958                31.2473                30.5376

                    139                    140                    141
                      A                      A                      A
 Frequencies --   3052.7418              3059.2064              3062.5734
 Red. masses --      1.0357                 1.0710                 1.0467
 Frc consts  --      5.6865                 5.9057                 5.7843
 IR Inten    --     53.6649                22.5433                12.1291

                    142                    143                    144
                      A                      A                      A
 Frequencies --   3063.6351              3065.1531              3067.2538
 Red. masses --      1.0447                 1.0662                 1.0414
 Frc consts  --      5.7770                 5.9019                 5.7725
 IR Inten    --     89.7374                 3.3548                45.0053

                    145                    146                    147
                      A                      A                      A
 Frequencies --   3077.6605              3081.7734              3114.6204
 Red. masses --      1.0688                 1.0821                 1.1060
 Frc consts  --      5.9650                 6.0552                 6.3214
 IR Inten    --     25.6293                82.7973                54.7213

                    148                    149                    150
                      A                      A                      A
 Frequencies --   3129.3862              3140.4537              3142.3270
 Red. masses --      1.1044                 1.1045                 1.0975
 Frc consts  --      6.3722                 6.4183                 6.3849
 IR Inten    --     43.8310                42.7996                40.3644

                    151                    152                    153
                      A                      A                      A
 Frequencies --   3162.5274              3173.1200              3178.5178
 Red. masses --      1.0986                 1.0881                 1.1029
 Frc consts  --      6.4739                 6.4552                 6.5648
 IR Inten    --     16.1543                10.8232                42.7551

                    154                    155                    156
                      A                      A                      A
 Frequencies --   3184.0177              3185.1783              3190.2533
 Red. masses --      1.1035                 1.1047                 1.0998
 Frc consts  --      6.5914                 6.6035                 6.5952
 IR Inten    --     33.9924                32.1280                26.9375

                    157                    158                    159
                      A                      A                      A
 Frequencies --   3255.2258              3257.0394              3262.3918
 Red. masses --      1.0930                 1.0926                 1.0928
 Frc consts  --      6.8239                 6.8293                 6.8530
 IR Inten    --      9.9280                 3.8112                10.1985

 - Thermochemistry -
 -------------------
 Temperature   298.150 Kelvin.  Pressure   1.00000 Atm.
 Atom     1 has atomic number  6 and mass  12.00000

 Molecular mass:   512.09396 amu.
 Principal axes and moments of inertia in atomic units:
                           1         2         3
     Eigenvalues --  ******************************
           X            0.99994   0.00549   0.00911
           Y           -0.00704   0.98374   0.17944
           Z           -0.00798  -0.17949   0.98373
 This molecule is an asymmetric top.
 Rotational symmetry number  1.
 Warning -- assumption of classical behavior for rotation
           may cause significant error
 Rotational temperatures (Kelvin)      0.00730     0.00412     0.00401
 Rotational constants (GHZ):           0.15218     0.08582     0.08352
 Zero-point vibrational energy    1098100.0 (Joules/Mol)
                                  262.45219 (Kcal/Mol)
 Warning -- explicit consideration of  55 degrees of freedom as
           vibrations may cause significant error
 Vibrational temperatures:     18.09    26.54    35.65    39.72    58.37
          (Kelvin)             70.04    79.37    91.56    99.07   109.72
                              118.47   123.79   142.88   148.73   155.62
                              167.51   194.11   222.13   229.92   252.91
                              259.70   266.51   284.21   299.33   317.50
                              345.16   354.20   359.99   374.58   393.88
                              411.24   421.83   427.55   432.36   454.82
                              484.20   502.39   518.78   531.02   544.75
                              603.44   618.36   629.29   666.66   683.52
                              696.89   721.93   728.79   767.28   776.65
                              794.85   831.71   834.69   853.45   885.29
                              895.97   950.90   989.20   991.28  1009.14
                             1029.08  1054.09  1088.59  1214.64  1243.44
                             1268.21  1270.26  1325.01  1334.73  1376.15
                             1381.04  1395.20  1448.06  1452.74  1463.52
                             1509.66  1523.12  1547.54  1605.31  1643.49
                             1644.45  1653.36  1656.88  1663.22  1677.53
                             1711.89  1714.92  1718.35  1719.26  1720.58
                             1721.97  1727.70  1736.81  1756.98  1772.66
                             1782.56  1784.15  1788.80  1803.93  1808.29
                             1818.14  1822.44  1837.43  1846.43  1875.39
                             1889.74  1910.06  1937.35  1957.94  1969.74
                             1986.04  1989.66  2005.95  2022.35  2037.21
                             2042.45  2049.70  2075.34  2078.40  2096.61
                             2144.09  2159.27  2161.88  2167.56  2175.62
                             2177.77  2179.07  2183.66  2189.39  2192.84
                             2195.74  2208.79  2212.79  2214.56  2214.81
                             2433.87  2462.32  4361.43  4392.21  4401.52
                             4406.36  4407.89  4410.07  4413.09  4428.07
                             4433.98  4481.24  4502.49  4518.41  4521.11
                             4550.17  4565.41  4573.18  4581.09  4582.76
                             4590.06  4683.54  4686.15  4693.85

 Zero-point correction=                           0.418244 (Hartree/Particle)
 Thermal correction to Energy=                    0.451093
 Thermal correction to Enthalpy=                  0.452037
 Thermal correction to Gibbs Free Energy=         0.350326
 Sum of electronic and zero-point Energies=          -2296.936574
 Sum of electronic and thermal Energies=             -2296.903725
 Sum of electronic and thermal Enthalpies=           -2296.902781
 Sum of electronic and thermal Free Energies=        -2297.004492

                     E (Thermal)             CV                S
                      KCal/Mol        Cal/Mol-Kelvin    Cal/Mol-Kelvin
 Total                  283.065            118.783            214.069
 Electronic               0.000              0.000              0.000
 Translational            0.889              2.981             44.587
 Rotational               0.889              2.981             36.931
 Vibrational            281.288            112.821            132.551
 Vibration     1          0.593              1.987              7.557
 Vibration     2          0.593              1.986              6.795
 Vibration     3          0.593              1.985              6.209
 Vibration     4          0.593              1.984              5.994
 Vibration     5          0.594              1.981              5.231
 Vibration     6          0.595              1.978              4.870
 Vibration     7          0.596              1.976              4.623
 Vibration     8          0.597              1.972              4.341
 Vibration     9          0.598              1.969              4.186
 Vibration    10          0.599              1.965              3.985
 Vibration    11          0.600              1.961              3.834
 Vibration    12          0.601              1.959              3.748
 Vibration    13          0.604              1.950              3.468
 Vibration    14          0.605              1.947              3.390
 Vibration    15          0.606              1.943              3.302
 Vibration    16          0.608              1.936              3.159
 Vibration    17          0.613              1.918              2.875
 Vibration    18          0.620              1.898              2.617
 Vibration    19          0.622              1.892              2.552
 Vibration    20          0.628              1.872              2.373
 Vibration    21          0.629              1.866              2.323
 Vibration    22          0.631              1.860              2.275
 Vibration    23          0.637              1.843              2.156
 Vibration    24          0.641              1.828              2.061
 Vibration    25          0.647              1.810              1.954
 Vibration    26          0.657              1.779              1.804
 Vibration    27          0.661              1.769              1.758
 Vibration    28          0.663              1.762              1.729
 Vibration    29          0.668              1.745              1.659
 Vibration    30          0.676              1.722              1.572
 Vibration    31          0.684              1.700              1.499
 Vibration    32          0.688              1.686              1.456
 Vibration    33          0.691              1.679              1.433
 Vibration    34          0.693              1.673              1.414
 Vibration    35          0.703              1.643              1.330
 Vibration    36          0.717              1.603              1.229
 Vibration    37          0.726              1.577              1.170
 Vibration    38          0.735              1.553              1.120
 Vibration    39          0.741              1.536              1.084
 Vibration    40          0.749              1.516              1.045
 Vibration    41          0.782              1.428              0.894
 Vibration    42          0.791              1.405              0.859
 Vibration    43          0.798              1.389              0.835
 Vibration    44          0.821              1.331              0.756
 Vibration    45          0.832              1.305              0.723
 Vibration    46          0.840              1.285              0.698
 Vibration    47          0.857              1.246              0.654
 Vibration    48          0.862              1.236              0.642
 Vibration    49          0.888              1.176              0.580
 Vibration    50          0.895              1.162              0.566
 Vibration    51          0.908              1.134              0.539
 Vibration    52          0.935              1.079              0.489
 Vibration    53          0.937              1.074              0.485
 Vibration    54          0.951              1.046              0.462
 Vibration    55          0.975              0.999              0.424

                           ! Non-Optimized Parameters !
 Normal termination of Gaussian 16 at Wed Jun  5 18:54:11 2019.
