 Gaussian 16, Revision A.03,
 Gaussian 16:  AS64L-G16RevA.03 25-Dec-2016

 ----------------------------------------------------------------------
 #p opt freq=noraman 6-31g(d) scrf=(solvent=tetrahydrofuran,pcm) pop=no
 ne b97d3 empiricaldispersion=gd3bj
 ----------------------------------------------------------------------

 -----
 title
 -----
 Symbolic Z-matrix:
 Charge =  0 Multiplicity = 1

 SCF Done:  E(RB97D3) =  -2297.01863315     A.U. after   14 cycles
 SCF Done:  E(RB97D3) =  -2297.01863229     A.U. after    7 cycles
 SCF Done:  E(RB97D3) =  -2297.01863284     A.U. after    7 cycles
 SCF Done:  E(RB97D3) =  -2297.01863320     A.U. after    6 cycles
 Optimization completed.
    -- Stationary point found.
 Normal termination of Gaussian 16 at Mon Jun 10 05:50:19 2019.

 --------------------------------------------------------------------
 #P Geom=AllCheck Guess=TCheck SCRF=Check GenChk RB97D3/6-31G(d) Freq
 --------------------------------------------------------------------

 Structure from the checkpoint file:  "/scratch/users/ekwan/clay_new-glu_gluC6-bisCF3-sm-b97d3_d3bj-631gd-pcm_thf/Gau-56373.chk"
 -----
 title
 -----
 Charge =  0 Multiplicity = 1

                         Standard orientation:
 ---------------------------------------------------------------------
 Center     Atomic      Atomic             Coordinates (Angstroms)
 Number     Number       Type             X           Y           Z
 ---------------------------------------------------------------------
      1          6           0       -3.425868   -0.494925    0.440316
      2          6           0       -3.306669    0.643397   -0.584666
      3          6           0       -1.829909    1.035304   -0.812540
      4          6           0       -1.026803   -1.121627   -0.132833
      5          6           0       -2.455497   -1.634037    0.101833
      6          1           0       -1.713555    1.740991   -1.640351
      7          1           0       -3.669413    0.267922   -1.560722
      8          1           0       -3.173996   -0.105373    1.439989
      9          1           0       -0.628280   -0.721988    0.813743
     10          1           0       -2.802412   -2.131343   -0.816253
     11          8           0       -1.019605   -0.055595   -1.122288
     12          8           0       -1.400156    1.703316    0.425274
     13          8           0       -4.103163    1.728098   -0.144530
     14          8           0       -4.744245   -1.040916    0.433139
     15          8           0       -2.400429   -2.559446    1.187914
     16          6           0       -0.074240   -2.221860   -0.610623
     17          1           0        0.109247   -2.884832    0.244055
     18          1           0        0.881315   -1.762167   -0.912707
     19          8           0       -0.579692   -3.057345   -1.644940
     20         16           0       -0.093604    2.715084    0.327074
     21          8           0       -0.091559    3.417798    1.614005
     22          8           0       -0.137672    3.441712   -0.952442
     23          6           0        1.286739    1.566268    0.288170
     24          6           0        1.712314    0.988058    1.486620
     25          6           0        1.860611    1.238209   -0.943218
     26          6           0        2.750489    0.047477    1.442986
     27          1           0        1.244722    1.262631    2.428868
     28          6           0        2.899477    0.302136   -0.964345
     29          1           0        1.499319    1.698308   -1.857964
     30          6           0        3.345397   -0.296087    0.223150
     31          1           0        4.147656   -1.029551    0.195839
     32          6           0       -4.280201    2.757132   -1.120184
     33          1           0       -3.358933    3.343876   -1.272113
     34          1           0       -4.605969    2.339390   -2.088944
     35          1           0       -5.060952    3.420660   -0.730500
     36          6           0       -5.587079   -0.550429    1.477565
     37          1           0       -6.543491   -1.078627    1.373935
     38          1           0       -5.158929   -0.773073    2.470805
     39          1           0       -5.752966    0.533272    1.389541
     40          6           0       -3.025603   -3.814041    0.904863
     41          1           0       -2.901388   -4.430362    1.804406
     42          1           0       -4.098196   -3.684930    0.693471
     43          1           0       -2.540630   -4.314390    0.050187
     44          6           0       -0.558915   -2.461460   -2.945257
     45          1           0       -0.769287   -3.268783   -3.658268
     46          1           0        0.431357   -2.028340   -3.165897
     47          1           0       -1.319194   -1.672769   -3.051329
     48          6           0        3.269414   -0.555883    2.730945
     49          9           0        2.294395   -0.641530    3.672259
     50          9           0        4.272675    0.199459    3.255397
     51          9           0        3.765775   -1.804966    2.534629
     52          6           0        3.500071   -0.143382   -2.279096
     53          9           0        3.014464   -1.368591   -2.642063
     54          9           0        4.849951   -0.265914   -2.195122
     55          9           0        3.221789    0.716169   -3.288895
 ---------------------------------------------------------------------

 SCF Done:  E(RB97D3) =  -2297.01863320     A.U. after    2 cycles

 Isotropic polarizability for W=    0.000000      289.66 Bohr**3.
 End of Minotr F.D. properties file   721 does not exist.

                      1                      2                      3
                      A                      A                      A
 Frequencies --     10.6336                16.5716                19.3719
 Red. masses --     10.2394                 7.3520                13.1419
 Frc consts  --      0.0007                 0.0012                 0.0029
 IR Inten    --      0.0935                 0.2337                 0.0177

                      4                      5                      6
                      A                      A                      A
 Frequencies --     21.0879                35.4112                44.2685
 Red. masses --     12.8139                 5.1307                 6.3021
 Frc consts  --      0.0034                 0.0038                 0.0073
 IR Inten    --      0.0578                 0.3054                 0.2420

                      7                      8                      9
                      A                      A                      A
 Frequencies --     49.7230                55.3891                64.3005
 Red. masses --      4.4024                 3.7205                 3.1477
 Frc consts  --      0.0064                 0.0067                 0.0077
 IR Inten    --      1.4703                 0.7641                 2.3481

                     10                     11                     12
                      A                      A                      A
 Frequencies --     70.6616                74.1386                78.1723
 Red. masses --      3.4075                 2.8781                 3.5085
 Frc consts  --      0.0100                 0.0093                 0.0126
 IR Inten    --      3.3247                 4.6198                 3.4693

                     13                     14                     15
                      A                      A                      A
 Frequencies --     92.0529                99.0014               103.0359
 Red. masses --      3.8752                 7.0394                11.0751
 Frc consts  --      0.0193                 0.0407                 0.0693
 IR Inten    --      2.7062                 3.5400                 3.1152

                     16                     17                     18
                      A                      A                      A
 Frequencies --    112.6722               125.1690               147.1620
 Red. masses --      9.4667                 2.3553                 7.3763
 Frc consts  --      0.0708                 0.0217                 0.0941
 IR Inten    --      0.4013                 3.8217                 0.3525

                     19                     20                     21
                      A                      A                      A
 Frequencies --    156.3651               160.6921               168.3276
 Red. masses --      2.2023                 2.5598                 2.4014
 Frc consts  --      0.0317                 0.0389                 0.0401
 IR Inten    --      1.1263                 0.2019                 0.9319

                     22                     23                     24
                      A                      A                      A
 Frequencies --    178.3409               189.9698               194.2068
 Red. masses --      1.7904                 2.1682                 2.2376
 Frc consts  --      0.0336                 0.0461                 0.0497
 IR Inten    --      0.2711                 5.6666                 6.5841

                     25                     26                     27
                      A                      A                      A
 Frequencies --    208.1185               224.9177               232.5495
 Red. masses --      1.5822                 1.8257                10.1465
 Frc consts  --      0.0404                 0.0544                 0.3233
 IR Inten    --      0.2340                 6.0943                 0.5898

                     28                     29                     30
                      A                      A                      A
 Frequencies --    240.4180               248.2651               262.2265
 Red. masses --      5.6195                 4.2369                 3.5599
 Frc consts  --      0.1914                 0.1539                 0.1442
 IR Inten    --      2.0893                 8.3601                10.4210

                     31                     32                     33
                      A                      A                      A
 Frequencies --    272.5569               280.4824               286.2398
 Red. masses --     10.5110                 5.7003                 5.3535
 Frc consts  --      0.4601                 0.2642                 0.2584
 IR Inten    --      4.7879                15.5169                 8.4513

                     34                     35                     36
                      A                      A                      A
 Frequencies --    287.3473               304.6927               319.6505
 Red. masses --     12.1221                 5.5918                 4.1535
 Frc consts  --      0.5897                 0.3059                 0.2500
 IR Inten    --      1.9687                 0.1245                 2.9004

                     37                     38                     39
                      A                      A                      A
 Frequencies --    332.8351               342.9428               350.6381
 Red. masses --      7.7616                 7.0466                 4.2167
 Frc consts  --      0.5066                 0.4883                 0.3054
 IR Inten    --      1.1489                 7.9760                 5.4962

                     40                     41                     42
                      A                      A                      A
 Frequencies --    355.0279               399.3078               411.6372
 Red. masses --      9.1890                10.4099                 9.1953
 Frc consts  --      0.6824                 0.9779                 0.9180
 IR Inten    --     20.0085                14.8730                 8.2218

                     43                     44                     45
                      A                      A                      A
 Frequencies --    423.0382               440.2080               450.4493
 Red. masses --      2.2206                 6.0421                 9.1496
 Frc consts  --      0.2341                 0.6898                 1.0938
 IR Inten    --      7.9532                 9.5435                24.3578

                     46                     47                     48
                      A                      A                      A
 Frequencies --    460.3506               473.8641               481.0550
 Red. masses --      3.9684                 7.8879                12.0402
 Frc consts  --      0.4955                 1.0436                 1.6416
 IR Inten    --      6.4091                10.2785                 1.3313

                     49                     50                     51
                      A                      A                      A
 Frequencies --    506.1855               512.3246               528.2010
 Red. masses --      8.6040                 6.4828                 4.4808
 Frc consts  --      1.2989                 1.0025                 0.7365
 IR Inten    --     54.6601                 2.8318                39.3669

                     52                     53                     54
                      A                      A                      A
 Frequencies --    547.6817               556.2883               560.3966
 Red. masses --     11.4027                 6.6826                 4.8787
 Frc consts  --      2.0152                 1.2184                 0.9027
 IR Inten    --     45.8030               131.5949                68.0586

                     55                     56                     57
                      A                      A                      A
 Frequencies --    581.6402               593.4566               624.4413
 Red. masses --      6.7648                 8.2138                 5.6573
 Frc consts  --      1.3484                 1.7044                 1.2997
 IR Inten    --     26.4057                 2.4053                10.5055

                     58                     59                     60
                      A                      A                      A
 Frequencies --    650.5732               652.4393               660.1084
 Red. masses --      7.9716                 7.5644                13.1649
 Frc consts  --      1.9879                 1.8972                 3.3799
 IR Inten    --     11.5867               106.8825                48.9478

                     61                     62                     63
                      A                      A                      A
 Frequencies --    685.8261               693.2852               710.8200
 Red. masses --      2.7674                12.1576                 5.1045
 Frc consts  --      0.7669                 3.4429                 1.5196
 IR Inten    --     15.4786                 0.4213               209.8625

                     64                     65                     66
                      A                      A                      A
 Frequencies --    746.0954               799.6984               811.0469
 Red. masses --      7.9850                 4.4747                 6.9540
 Frc consts  --      2.6189                 1.6860                 2.6951
 IR Inten    --    387.7074                20.5992                26.5478

                     67                     68                     69
                      A                      A                      A
 Frequencies --    830.5098               848.1409               874.6524
 Red. masses --     11.9823                 4.2995                 1.5166
 Frc consts  --      4.8695                 1.8222                 0.6836
 IR Inten    --     36.4753                39.5278                62.9969

                     70                     71                     72
                      A                      A                      A
 Frequencies --    893.5215               907.4434               911.7693
 Red. masses --      3.2346                 1.3800                 1.3603
 Frc consts  --      1.5215                 0.6695                 0.6663
 IR Inten    --     39.4317                 1.4031                 3.3130

                     73                     74                     75
                      A                      A                      A
 Frequencies --    931.7027               944.2951               973.6698
 Red. masses --      5.2107                 4.4202                 4.1850
 Frc consts  --      2.6650                 2.3222                 2.3376
 IR Inten    --     11.0516                29.9426                45.9003

                     76                     77                     78
                      A                      A                      A
 Frequencies --    984.7624               997.4932              1012.2876
 Red. masses --      4.6525                 6.4029                 3.6705
 Frc consts  --      2.6583                 3.7536                 2.2161
 IR Inten    --     22.4417                 2.7385               135.6368

                     79                     80                     81
                      A                      A                      A
 Frequencies --   1051.3950              1076.4348              1085.0148
 Red. masses --      3.2357                11.8295                 4.1268
 Frc consts  --      2.1074                 8.0760                 2.8624
 IR Inten    --     20.9175                78.1010               238.5843

                     82                     83                     84
                      A                      A                      A
 Frequencies --   1090.5889              1091.6960              1094.7929
 Red. masses --      5.5627                 5.3313                 4.3422
 Frc consts  --      3.8982                 3.7436                 3.0664
 IR Inten    --    332.6406               135.8546               147.5504

                     85                     86                     87
                      A                      A                      A
 Frequencies --   1101.1514              1105.0763              1110.5695
 Red. masses --      6.5254                 4.0072                 2.8970
 Frc consts  --      4.6618                 2.8832                 2.1052
 IR Inten    --    277.9512                46.8290               144.5805

                     88                     89                     90
                      A                      A                      A
 Frequencies --   1114.9546              1116.0114              1119.3686
 Red. masses --      4.0920                 4.2945                 6.4181
 Frc consts  --      2.9971                 3.1514                 4.7381
 IR Inten    --    413.6859               189.5893               400.8764

                     91                     92                     93
                      A                      A                      A
 Frequencies --   1127.0702              1139.3466              1148.0367
 Red. masses --      4.0534                 4.6342                 2.9164
 Frc consts  --      3.0337                 3.5443                 2.2647
 IR Inten    --     17.5949               163.5802                78.5788

                     94                     95                     96
                      A                      A                      A
 Frequencies --   1156.4817              1159.8580              1163.9920
 Red. masses --      5.1454                 1.2935                 1.2651
 Frc consts  --      4.0546                 1.0253                 1.0099
 IR Inten    --    166.6688                 3.9994                 0.1610

                     97                     98                     99
                      A                      A                      A
 Frequencies --   1164.6409              1164.8294              1168.9961
 Red. masses --      2.6355                 1.4667                 1.2921
 Frc consts  --      2.1062                 1.1725                 1.0403
 IR Inten    --    129.5747                42.0027                 1.5893

                    100                    101                    102
                      A                      A                      A
 Frequencies --   1190.4850              1196.7217              1202.3167
 Red. masses --      1.3247                 1.3991                 1.5040
 Frc consts  --      1.1062                 1.1806                 1.2810
 IR Inten    --     20.1915                19.8563                 8.8008

                    103                    104                    105
                      A                      A                      A
 Frequencies --   1211.9259              1240.6791              1244.3646
 Red. masses --      1.5718                 1.6821                 3.2232
 Frc consts  --      1.3602                 1.5255                 2.9406
 IR Inten    --     12.6189                 6.7879               779.2599

                    106                    107                    108
                      A                      A                      A
 Frequencies --   1280.5360              1291.4833              1299.4760
 Red. masses --      1.4163                 1.8089                 3.2085
 Frc consts  --      1.3683                 1.7776                 3.1922
 IR Inten    --      1.3782                48.5405               174.8573

                    109                    110                    111
                      A                      A                      A
 Frequencies --   1307.3802              1319.1975              1328.6228
 Red. masses --      1.3750                 1.1798                 5.9339
 Frc consts  --      1.3847                 1.2097                 6.1715
 IR Inten    --      2.0436                15.0090               180.8029

                    112                    113                    114
                      A                      A                      A
 Frequencies --   1343.1519              1344.9002              1359.4496
 Red. masses --      1.2147                 1.1809                 1.2438
 Frc consts  --      1.2911                 1.2584                 1.3543
 IR Inten    --     20.5529                 7.7885                 3.6631

                    115                    116                    117
                      A                      A                      A
 Frequencies --   1367.3074              1372.6185              1384.9835
 Red. masses --      1.4783                 5.8916                 1.2778
 Frc consts  --      1.6284                 6.5401                 1.4441
 IR Inten    --      8.0298                 1.3950                 5.2224

                    118                    119                    120
                      A                      A                      A
 Frequencies --   1392.5310              1403.4441              1411.6943
 Red. masses --      1.3328                 1.2789                 1.2822
 Frc consts  --      1.5228                 1.4842                 1.5055
 IR Inten    --     27.4650                12.3976                13.5669

                    121                    122                    123
                      A                      A                      A
 Frequencies --   1449.9638              1460.8052              1465.2737
 Red. masses --      3.4221                 1.0942                 3.6438
 Frc consts  --      4.2390                 1.3758                 4.6094
 IR Inten    --      7.1195                 2.9035                 2.0869

                    124                    125                    126
                      A                      A                      A
 Frequencies --   1466.8080              1467.6963              1469.7443
 Red. masses --      1.1618                 1.1401                 1.1350
 Frc consts  --      1.4728                 1.4470                 1.4445
 IR Inten    --      0.5782                 2.7814                 4.3010

                    127                    128                    129
                      A                      A                      A
 Frequencies --   1478.7323              1480.6963              1481.8684
 Red. masses --      1.0511                 1.0747                 1.0549
 Frc consts  --      1.3542                 1.3882                 1.3648
 IR Inten    --      1.5390                11.6568                 1.4522

                    130                    131                    132
                      A                      A                      A
 Frequencies --   1485.8607              1489.9470              1504.3216
 Red. masses --      1.1064                 1.0891                 1.0483
 Frc consts  --      1.4391                 1.4245                 1.3977
 IR Inten    --      0.8068                 5.8620                10.2069

                    133                    134                    135
                      A                      A                      A
 Frequencies --   1506.1763              1507.6819              1509.5687
 Red. masses --      1.0504                 1.0555                 1.0534
 Frc consts  --      1.4040                 1.4135                 1.4143
 IR Inten    --      9.1228                 6.7692                 7.0668

                    136                    137                    138
                      A                      A                      A
 Frequencies --   1605.1816              1626.9503              2937.4075
 Red. masses --      6.0663                 5.7659                 1.0811
 Frc consts  --      9.2092                 8.9923                 5.4958
 IR Inten    --      8.6120                12.9380                46.3330

                    139                    140                    141
                      A                      A                      A
 Frequencies --   2954.4090              2957.6481              2967.2380
 Red. masses --      1.0359                 1.0395                 1.0325
 Frc consts  --      5.3276                 5.3578                 5.3562
 IR Inten    --    101.3940                77.0258                87.6340

                    142                    143                    144
                      A                      A                      A
 Frequencies --   2968.7878              2989.1844              2993.2859
 Red. masses --      1.0328                 1.0711                 1.0831
 Frc consts  --      5.3630                 5.6386                 5.7176
 IR Inten    --     64.2084                16.5396                20.7419

                    145                    146                    147
                      A                      A                      A
 Frequencies --   2998.5588              3013.5368              3018.1762
 Red. masses --      1.0753                 1.1052                 1.0847
 Frc consts  --      5.6963                 5.9133                 5.8216
 IR Inten    --     60.0779                76.7505                61.7833

                    148                    149                    150
                      A                      A                      A
 Frequencies --   3035.0781              3036.1429              3036.5610
 Red. masses --      1.1035                 1.1003                 1.0993
 Frc consts  --      5.9889                 5.9759                 5.9723
 IR Inten    --     50.2696               106.3307                24.5082

                    151                    152                    153
                      A                      A                      A
 Frequencies --   3076.6074              3083.2124              3085.3362
 Red. masses --      1.0989                 1.1029                 1.1025
 Frc consts  --      6.1284                 6.1773                 6.1837
 IR Inten    --     24.5428                57.1099                50.1031

                    154                    155                    156
                      A                      A                      A
 Frequencies --   3085.9315              3092.3786              3095.8929
 Red. masses --      1.1036                 1.0898                 1.0967
 Frc consts  --      6.1921                 6.1403                 6.1931
 IR Inten    --     48.2630                30.7179                27.5997

                    157                    158                    159
                      A                      A                      A
 Frequencies --   3188.7181              3191.8084              3205.3648
 Red. masses --      1.0913                 1.0914                 1.0914
 Frc consts  --      6.5380                 6.5511                 6.6065
 IR Inten    --      0.0301                 2.6223                 3.9618

 - Thermochemistry -
 -------------------
 Temperature   298.150 Kelvin.  Pressure   1.00000 Atm.
 Atom     1 has atomic number  6 and mass  12.00000

 Molecular mass:   512.09396 amu.
 Principal axes and moments of inertia in atomic units:
                           1         2         3
     Eigenvalues --  ******************************
           X            0.99995   0.00934  -0.00369
           Y           -0.00929   0.99989   0.01175
           Z            0.00380  -0.01172   0.99992
 This molecule is an asymmetric top.
 Rotational symmetry number  1.
 Warning -- assumption of classical behavior for rotation
           may cause significant error
 Rotational temperatures (Kelvin)      0.00716     0.00405     0.00397
 Rotational constants (GHZ):           0.14910     0.08436     0.08269
 Zero-point vibrational energy    1055096.8 (Joules/Mol)
                                  252.17420 (Kcal/Mol)
 Warning -- explicit consideration of  56 degrees of freedom as
           vibrations may cause significant error
 Vibrational temperatures:     15.30    23.84    27.87    30.34    50.95
          (Kelvin)             63.69    71.54    79.69    92.51   101.67
                              106.67   112.47   132.44   142.44   148.25
                              162.11   180.09   211.73   224.97   231.20
                              242.19   256.59   273.32   279.42   299.44
                              323.61   334.59   345.91   357.20   377.29
                              392.15   403.55   411.84   413.43   438.38
                              459.91   478.88   493.42   504.49   510.81
                              574.51   592.25   608.66   633.36   648.10
                              662.34   681.78   692.13   728.29   737.12
                              759.96   787.99   800.37   806.29   836.85
                              853.85   898.43   936.03   938.71   949.75
                              986.75   997.48  1022.71  1073.46  1150.59
                             1166.92  1194.92  1220.29  1258.43  1285.58
                             1305.61  1311.83  1340.51  1358.63  1400.89
                             1416.85  1435.17  1456.46  1512.72  1548.75
                             1561.09  1569.11  1570.71  1575.16  1584.31
                             1589.96  1597.86  1604.17  1605.69  1610.52
                             1621.60  1639.27  1651.77  1663.92  1668.78
                             1674.72  1675.66  1675.93  1681.92  1712.84
                             1721.82  1729.87  1743.69  1785.06  1790.36
                             1842.41  1858.16  1869.66  1881.03  1898.03
                             1911.59  1932.50  1935.01  1955.94  1967.25
                             1974.89  1992.68  2003.54  2019.24  2031.11
                             2086.17  2101.77  2108.20  2110.41  2111.69
                             2114.63  2127.57  2130.39  2132.08  2137.82
                             2143.70  2164.38  2167.05  2169.22  2171.93
                             2309.50  2340.82  4226.27  4250.74  4255.40
                             4269.19  4271.42  4300.77  4306.67  4314.26
                             4335.81  4342.48  4366.80  4368.33  4368.93
                             4426.55  4436.06  4439.11  4439.97  4449.24
                             4454.30  4587.85  4592.30  4611.81

 Zero-point correction=                           0.401865 (Hartree/Particle)
 Thermal correction to Energy=                    0.436064
 Thermal correction to Enthalpy=                  0.437008
 Thermal correction to Gibbs Free Energy=         0.331471
 Sum of electronic and zero-point Energies=          -2296.616768
 Sum of electronic and thermal Energies=             -2296.582569
 Sum of electronic and thermal Enthalpies=           -2296.581625
 Sum of electronic and thermal Free Energies=        -2296.687162

                     E (Thermal)             CV                S
                      KCal/Mol        Cal/Mol-Kelvin    Cal/Mol-Kelvin
 Total                  273.634            123.735            222.122
 Electronic               0.000              0.000              0.000
 Translational            0.889              2.981             44.587
 Rotational               0.889              2.981             36.978
 Vibrational            271.857            117.773            140.557
 Vibration     1          0.593              1.987              7.889
 Vibration     2          0.593              1.986              7.008
 Vibration     3          0.593              1.986              6.698
 Vibration     4          0.593              1.985              6.529
 Vibration     5          0.594              1.982              5.501
 Vibration     6          0.595              1.980              5.058
 Vibration     7          0.595              1.978              4.828
 Vibration     8          0.596              1.975              4.615
 Vibration     9          0.597              1.971              4.321
 Vibration    10          0.598              1.968              4.135
 Vibration    11          0.599              1.966              4.040
 Vibration    12          0.599              1.964              3.936
 Vibration    13          0.602              1.955              3.616
 Vibration    14          0.604              1.950              3.474
 Vibration    15          0.605              1.947              3.396
 Vibration    16          0.607              1.939              3.222
 Vibration    17          0.610              1.928              3.019
 Vibration    18          0.617              1.906              2.709
 Vibration    19          0.620              1.896              2.593
 Vibration    20          0.622              1.891              2.542
 Vibration    21          0.625              1.881              2.454
 Vibration    22          0.629              1.869              2.346
 Vibration    23          0.633              1.854              2.228
 Vibration    24          0.635              1.848              2.187
 Vibration    25          0.641              1.828              2.060
 Vibration    26          0.650              1.803              1.919
 Vibration    27          0.653              1.791              1.859
 Vibration    28          0.657              1.779              1.800
 Vibration    29          0.662              1.766              1.743
 Vibration    30          0.670              1.742              1.647
 Vibration    31          0.676              1.724              1.580
 Vibration    32          0.680              1.710              1.531
 Vibration    33          0.684              1.699              1.496
 Vibration    34          0.685              1.697              1.490
 Vibration    35          0.696              1.665              1.391
 Vibration    36          0.706              1.636              1.312
 Vibration    37          0.715              1.610              1.246
 Vibration    38          0.722              1.590              1.198
 Vibration    39          0.728              1.574              1.163
 Vibration    40          0.731              1.565              1.144
 Vibration    41          0.765              1.472              0.965
 Vibration    42          0.776              1.445              0.921
 Vibration    43          0.785              1.420              0.882
 Vibration    44          0.800              1.382              0.826
 Vibration    45          0.809              1.360              0.794
 Vibration    46          0.818              1.338              0.765
 Vibration    47          0.831              1.308              0.727
 Vibration    48          0.837              1.292              0.707
 Vibration    49          0.861              1.236              0.643
 Vibration    50          0.867              1.223              0.628
 Vibration    51          0.883              1.188              0.591
 Vibration    52          0.903              1.145              0.549
 Vibration    53          0.912              1.126              0.531
 Vibration    54          0.916              1.117              0.523
 Vibration    55          0.938              1.071              0.482
 Vibration    56          0.951              1.046              0.461

                           ! Non-Optimized Parameters !
 Normal termination of Gaussian 16 at Mon Jun 10 06:10:34 2019.
