 Gaussian 16, Revision A.03,
 Gaussian 16:  AS64L-G16RevA.03 25-Dec-2016

 ----------------------------------------------------------------------
 #p opt freq=noraman pop=none 6-31g* scrf=(pcm,solvent=tetrahydrofuran)
  bhandhlyp
 ----------------------------------------------------------------------

 -----
 title
 -----
 Symbolic Z-matrix:
 Charge =  0 Multiplicity = 1

 SCF Done:  E(RBHandHLYP) =  -2297.13950060     A.U. after   13 cycles
 Optimization completed.
    -- Stationary point found.
 Normal termination of Gaussian 16 at Wed Jun  5 16:45:15 2019.

 ----------------------------------------------------------------------
 #P Geom=AllCheck Guess=TCheck SCRF=Check GenChk RBHandHLYP/6-31G(d) Fr
 eq
 ----------------------------------------------------------------------

 Structure from the checkpoint file:  "/scratch/users/ekwan/clay_new-glu_gluC6-bisCF3-sm-bhandhlyp-631gd-pcm_thf/Gau-16746.chk"
 -----
 title
 -----
 Charge =  0 Multiplicity = 1

                         Standard orientation:
 ---------------------------------------------------------------------
 Center     Atomic      Atomic             Coordinates (Angstroms)
 Number     Number       Type             X           Y           Z
 ---------------------------------------------------------------------
      1          6           0        3.481721   -0.222465    0.728933
      2          6           0        3.335020   -0.474518   -0.764810
      3          6           0        1.874877   -0.360938   -1.200852
      4          6           0        1.335931    1.082332    0.614265
      5          6           0        2.776005    1.069650    1.112371
      6          1           0        1.771721   -0.401519   -2.275146
      7          1           0        3.869933    0.318530   -1.291940
      8          1           0        3.025117   -1.044719    1.279116
      9          1           0        0.775261    0.312436    1.143256
     10          1           0        3.305070    1.906141    0.660171
     11          8           0        1.286658    0.811129   -0.788651
     12          8           0        1.188306   -1.503882   -0.643728
     13          8           0        3.882133   -1.719028   -1.073693
     14          8           0        4.836021   -0.097440    1.074755
     15          8           0        2.738434    1.205179    2.509205
     16          6           0        0.643162    2.408002    0.863837
     17          1           0        0.541698    2.520899    1.937994
     18          1           0       -0.353917    2.379967    0.425934
     19          8           0        1.352924    3.526813    0.406401
     20         16           0       -0.088076   -2.117321   -1.382015
     21          8           0       -0.180240   -3.469575   -0.906733
     22          8           0        0.014792   -1.829803   -2.791137
     23          6           0       -1.446281   -1.197817   -0.721408
     24          6           0       -2.106790   -1.683490    0.393323
     25          6           0       -1.821406   -0.013878   -1.332360
     26          6           0       -3.167074   -0.955986    0.907146
     27          1           0       -1.802881   -2.612157    0.842740
     28          6           0       -2.875792    0.704204   -0.796166
     29          1           0       -1.305244    0.337247   -2.207610
     30          6           0       -3.551472    0.237972    0.319990
     31          1           0       -4.373642    0.799914    0.726693
     32          6           0        4.233368   -1.903150   -2.424862
     33          1           0        3.359342   -1.942677   -3.073223
     34          1           0        4.895204   -1.109126   -2.769352
     35          1           0        4.752916   -2.851612   -2.487070
     36          6           0        5.427302   -1.253398    1.620283
     37          1           0        6.455552   -0.999116    1.852542
     38          1           0        4.922350   -1.553754    2.538262
     39          1           0        5.409747   -2.079769    0.916077
     40          6           0        3.635375    2.153785    3.038994
     41          1           0        3.495324    2.152143    4.114290
     42          1           0        4.664511    1.892738    2.808723
     43          1           0        3.421431    3.150285    2.654428
     44          6           0        1.133547    3.875047   -0.940234
     45          1           0        1.573997    4.855024   -1.088046
     46          1           0        0.067054    3.929303   -1.159154
     47          1           0        1.594306    3.167688   -1.624104
     48          6           0       -3.936770   -1.492475    2.076571
     49          9           0       -3.167014   -2.233149    2.870362
     50          9           0       -4.950437   -2.263661    1.682092
     51          9           0       -4.455240   -0.511338    2.812191
     52          6           0       -3.248574    2.024157   -1.399448
     53          9           0       -2.529927    3.020728   -0.868548
     54          9           0       -4.528859    2.318132   -1.193735
     55          9           0       -3.028605    2.044836   -2.710933
 ---------------------------------------------------------------------

 SCF Done:  E(RBHandHLYP) =  -2297.13950060     A.U. after    1 cycles

 Isotropic polarizability for W=    0.000000      256.53 Bohr**3.
 End of Minotr F.D. properties file   721 does not exist.

                      1                      2                      3
                      A                      A                      A
 Frequencies --     14.7954                19.0896                24.2400
 Red. masses --      9.4848                 6.4930                17.3346
 Frc consts  --      0.0012                 0.0014                 0.0060
 IR Inten    --      0.1235                 0.2906                 0.0120

                      4                      5                      6
                      A                      A                      A
 Frequencies --     27.1055                35.6765                39.3270
 Red. masses --     11.7021                 3.6115                 4.6393
 Frc consts  --      0.0051                 0.0027                 0.0042
 IR Inten    --      0.0160                 1.0614                 1.8213

                      7                      8                      9
                      A                      A                      A
 Frequencies --     50.3754                51.3982                56.7460
 Red. masses --      3.8275                 3.8195                 5.0128
 Frc consts  --      0.0057                 0.0059                 0.0095
 IR Inten    --      2.7601                 1.6827                 0.1965

                     10                     11                     12
                      A                      A                      A
 Frequencies --     65.9227                73.6159                81.5181
 Red. masses --      3.1027                 4.0578                 3.1826
 Frc consts  --      0.0079                 0.0130                 0.0125
 IR Inten    --      8.5280                 0.3100                 0.9276

                     13                     14                     15
                      A                      A                      A
 Frequencies --     85.9109               103.9811               105.7890
 Red. masses --      2.6383                 8.2243                 8.5654
 Frc consts  --      0.0115                 0.0524                 0.0565
 IR Inten    --      6.3348                 3.1691                 3.9419

                     16                     17                     18
                      A                      A                      A
 Frequencies --    111.5016               121.8656               156.8305
 Red. masses --      2.6832                 7.1721                 1.3084
 Frc consts  --      0.0197                 0.0628                 0.0190
 IR Inten    --      2.9544                 2.1741                 0.1969

                     19                     20                     21
                      A                      A                      A
 Frequencies --    158.1284               166.1903               173.6438
 Red. masses --      6.6517                 1.7384                 1.8639
 Frc consts  --      0.0980                 0.0283                 0.0331
 IR Inten    --      0.1659                 0.4563                 1.0075

                     22                     23                     24
                      A                      A                      A
 Frequencies --    182.9068               191.5911               197.5410
 Red. masses --      2.1667                 2.6253                 2.5330
 Frc consts  --      0.0427                 0.0568                 0.0582
 IR Inten    --      2.6072                 3.8797                 1.1947

                     25                     26                     27
                      A                      A                      A
 Frequencies --    202.4703               231.8175               247.0033
 Red. masses --      2.1031                 3.4290                12.1063
 Frc consts  --      0.0508                 0.1086                 0.4352
 IR Inten    --      0.4030                14.6506                 0.1836

                     28                     29                     30
                      A                      A                      A
 Frequencies --    254.0427               261.7914               268.5340
 Red. masses --      3.9118                 3.6206                 7.7502
 Frc consts  --      0.1487                 0.1462                 0.3293
 IR Inten    --      7.9876                 9.5499                10.4720

                     31                     32                     33
                      A                      A                      A
 Frequencies --    294.5493               297.9254               303.1979
 Red. masses --     10.9727                 5.1940                11.3505
 Frc consts  --      0.5609                 0.2716                 0.6148
 IR Inten    --      3.6611                 6.4506                 5.2262

                     34                     35                     36
                      A                      A                      A
 Frequencies --    307.2237               327.7153               334.3596
 Red. masses --      7.6556                 5.3509                 4.1564
 Frc consts  --      0.4257                 0.3386                 0.2738
 IR Inten    --     12.2733                 0.2971                 5.2336

                     37                     38                     39
                      A                      A                      A
 Frequencies --    357.9671               368.1941               372.1073
 Red. masses --      6.8403                 5.7453                 5.5567
 Frc consts  --      0.5164                 0.4589                 0.4533
 IR Inten    --      0.9527                 2.5404                 8.5369

                     40                     41                     42
                      A                      A                      A
 Frequencies --    385.8686               431.0371               438.3421
 Red. masses --      9.6161                 9.9472                 8.5841
 Frc consts  --      0.8436                 1.0889                 0.9718
 IR Inten    --     13.9483                16.6723                 6.7864

                     43                     44                     45
                      A                      A                      A
 Frequencies --    457.7154               471.6969               485.0666
 Red. masses --      2.2026                 4.9650                 7.5151
 Frc consts  --      0.2719                 0.6509                 1.0418
 IR Inten    --      7.4308                12.0960                 8.9054

                     46                     47                     48
                      A                      A                      A
 Frequencies --    490.5906               518.2107               521.9566
 Red. masses --      4.5923                 7.4765                11.8716
 Frc consts  --      0.6512                 1.1829                 1.9056
 IR Inten    --     14.4568                21.9315                 0.7137

                     49                     50                     51
                      A                      A                      A
 Frequencies --    545.1339               556.0992               563.6323
 Red. masses --      4.5608                10.8957                 5.0263
 Frc consts  --      0.7985                 1.9852                 0.9408
 IR Inten    --     34.1318                41.3733                10.1765

                     52                     53                     54
                      A                      A                      A
 Frequencies --    588.7682               593.8191               613.6458
 Red. masses --      3.8563                15.3024                12.0287
 Frc consts  --      0.7876                 3.1792                 2.6687
 IR Inten    --     40.3028                 5.5404               316.8992

                     55                     56                     57
                      A                      A                      A
 Frequencies --    633.5529               640.4212               660.5750
 Red. masses --      6.5260                 7.8843                 5.7804
 Frc consts  --      1.5434                 1.9052                 1.4861
 IR Inten    --     50.8026                 7.8330                11.0551

                     58                     59                     60
                      A                      A                      A
 Frequencies --    706.4911               709.1103               719.7091
 Red. masses --      7.6066                12.8233                 5.6037
 Frc consts  --      2.2370                 3.7991                 1.7102
 IR Inten    --      0.9232                66.7368                16.7978

                     61                     62                     63
                      A                      A                      A
 Frequencies --    738.6822               749.9094               766.6836
 Red. masses --      2.4889                 8.9060                 6.1541
 Frc consts  --      0.8002                 2.9509                 2.1313
 IR Inten    --     36.0581                 5.6713                41.9987

                     64                     65                     66
                      A                      A                      A
 Frequencies --    865.8201               883.2380               898.7711
 Red. masses --      5.1920                 4.9186                12.2402
 Frc consts  --      2.2932                 2.2607                 5.8256
 IR Inten    --     98.2236                11.3108                48.0091

                     67                     68                     69
                      A                      A                      A
 Frequencies --    904.2163               931.8763               969.3706
 Red. masses --      8.4793                 4.7004                 1.7251
 Frc consts  --      4.0847                 2.4049                 0.9551
 IR Inten    --    479.2111               247.9037                78.1229

                     70                     71                     72
                      A                      A                      A
 Frequencies --    975.6162              1001.9583              1016.9835
 Red. masses --      2.3709                 1.4081                 1.3996
 Frc consts  --      1.3296                 0.8329                 0.8528
 IR Inten    --     10.2555                 3.1245                11.8893

                     73                     74                     75
                      A                      A                      A
 Frequencies --   1019.5575              1027.0942              1052.8873
 Red. masses --      4.2083                 4.0642                 6.3038
 Frc consts  --      2.5774                 2.5261                 4.1173
 IR Inten    --      7.2831                45.0458                 4.3364

                     76                     77                     78
                      A                      A                      A
 Frequencies --   1065.0933              1078.1405              1095.5644
 Red. masses --      4.0964                 4.0090                 3.5878
 Frc consts  --      2.7380                 2.7456                 2.5372
 IR Inten    --     48.7915                12.7140               160.5971

                     79                     80                     81
                      A                      A                      A
 Frequencies --   1137.3481              1169.5727              1171.2895
 Red. masses --      3.0211                 7.7105                 2.7821
 Frc consts  --      2.3025                 6.2143                 2.2488
 IR Inten    --     24.2845                38.4552               123.9089

                     82                     83                     84
                      A                      A                      A
 Frequencies --   1179.5776              1181.4655              1183.9037
 Red. masses --      2.3916                 2.2215                 1.8855
 Frc consts  --      1.9606                 1.8270                 1.5571
 IR Inten    --     15.0016                82.8813                33.0847

                     85                     86                     87
                      A                      A                      A
 Frequencies --   1192.8234              1214.8501              1220.5150
 Red. masses --      2.7186                 3.2612                 4.1236
 Frc consts  --      2.2791                 2.8358                 3.6192
 IR Inten    --    238.2176                40.1821               112.7630

                     88                     89                     90
                      A                      A                      A
 Frequencies --   1222.1650              1231.8723              1233.9526
 Red. masses --      3.5445                 1.3053                 1.2757
 Frc consts  --      3.1193                 1.1671                 1.1444
 IR Inten    --    595.1082                17.3489                 7.3473

                     91                     92                     93
                      A                      A                      A
 Frequencies --   1235.8342              1239.5386              1245.8088
 Red. masses --      1.3186                 1.2794                 2.0295
 Frc consts  --      1.1865                 1.1582                 1.8559
 IR Inten    --      1.3554                 6.2363               149.6054

                     94                     95                     96
                      A                      A                      A
 Frequencies --   1247.1131              1253.8390              1262.6049
 Red. masses --      8.0311                 3.8952                12.4097
 Frc consts  --      7.3593                 3.6080                11.6559
 IR Inten    --    396.0370               107.9086               380.2964

                     97                     98                     99
                      A                      A                      A
 Frequencies --   1263.6855              1272.3939              1280.1068
 Red. masses --      4.2838                 1.6503                 7.3695
 Frc consts  --      4.0305                 1.5741                 7.1151
 IR Inten    --    110.5768               188.7326               111.9246

                    100                    101                    102
                      A                      A                      A
 Frequencies --   1282.6295              1291.3299              1294.7891
 Red. masses --      1.6991                 7.3493                 1.9294
 Frc consts  --      1.6469                 7.2206                 1.9058
 IR Inten    --     47.3051               352.1262                11.1527

                    103                    104                    105
                      A                      A                      A
 Frequencies --   1296.3144              1326.1769              1348.5983
 Red. masses --      1.9276                 1.7919                 2.3623
 Frc consts  --      1.9085                 1.8569                 2.5313
 IR Inten    --     80.7497                 9.7883                51.9596

                    106                    107                    108
                      A                      A                      A
 Frequencies --   1359.5786              1366.7352              1398.1551
 Red. masses --      3.6816                 1.4580                 2.3893
 Frc consts  --      4.0095                 1.6046                 2.7519
 IR Inten    --    803.0121                 3.7958                75.5793

                    109                    110                    111
                      A                      A                      A
 Frequencies --   1399.2287              1413.0354              1418.2605
 Red. masses --      1.2316                 1.4818                 5.7896
 Frc consts  --      1.4206                 1.7432                 6.8614
 IR Inten    --     41.4681                 4.1421               204.4275

                    112                    113                    114
                      A                      A                      A
 Frequencies --   1435.5979              1437.8284              1449.1061
 Red. masses --      1.2624                 1.2328                 6.1383
 Frc consts  --      1.5329                 1.5016                 7.5945
 IR Inten    --     19.3246                37.4580               181.0516

                    115                    116                    117
                      A                      A                      A
 Frequencies --   1460.0044              1471.5041              1483.0100
 Red. masses --      1.3073                 1.4325                 1.3020
 Frc consts  --      1.6418                 1.8275                 1.6871
 IR Inten    --      1.1727                18.5199                12.1858

                    118                    119                    120
                      A                      A                      A
 Frequencies --   1498.0750              1501.0070              1513.9697
 Red. masses --      1.5115                 1.3527                 1.3934
 Frc consts  --      1.9986                 1.7957                 1.8818
 IR Inten    --     33.1777                17.4730                13.1839

                    121                    122                    123
                      A                      A                      A
 Frequencies --   1550.1297              1555.4429              1556.1771
 Red. masses --      1.1021                 1.1811                 4.0342
 Frc consts  --      1.5602                 1.6836                 5.7560
 IR Inten    --      2.4207                 0.3692                 6.0982

                    124                    125                    126
                      A                      A                      A
 Frequencies --   1556.8477              1559.4846              1561.9852
 Red. masses --      1.1770                 1.1283                 4.4819
 Frc consts  --      1.6809                 1.6167                 6.4427
 IR Inten    --      1.4652                 5.0585                 0.6518

                    127                    128                    129
                      A                      A                      A
 Frequencies --   1566.2614              1567.7064              1568.2152
 Red. masses --      1.0528                 1.0592                 1.0538
 Frc consts  --      1.5216                 1.5338                 1.5269
 IR Inten    --      3.2767                 2.2678                 8.8972

                    130                    131                    132
                      A                      A                      A
 Frequencies --   1575.2375              1576.1046              1584.5257
 Red. masses --      1.1304                 1.0821                 1.0623
 Frc consts  --      1.6526                 1.5837                 1.5714
 IR Inten    --      5.0654                 4.4942                12.2034

                    133                    134                    135
                      A                      A                      A
 Frequencies --   1590.9365              1591.4535              1594.4605
 Red. masses --      1.0520                 1.0499                 1.0622
 Frc consts  --      1.5687                 1.5668                 1.5910
 IR Inten    --      7.2448                 7.8307                 9.0763

                    136                    137                    138
                      A                      A                      A
 Frequencies --   1733.6469              1753.6063              3118.8500
 Red. masses --      6.1302                 5.9020                 1.0760
 Frc consts  --     10.8554                10.6934                 6.1665
 IR Inten    --     30.5386                33.4559                23.8512

                    139                    140                    141
                      A                      A                      A
 Frequencies --   3126.5738              3129.3023              3130.8144
 Red. masses --      1.0417                 1.0401                 1.0372
 Frc consts  --      5.9995                 6.0008                 5.9900
 IR Inten    --     75.6489                53.6660                50.5755

                    142                    143                    144
                      A                      A                      A
 Frequencies --   3132.9390              3150.0591              3151.3582
 Red. masses --      1.0360                 1.0763                 1.0839
 Frc consts  --      5.9910                 6.2924                 6.3422
 IR Inten    --     60.7341                 6.8351                17.7121

                    145                    146                    147
                      A                      A                      A
 Frequencies --   3161.2310              3173.6875              3186.0814
 Red. masses --      1.0718                 1.0852                 1.1067
 Frc consts  --      6.3108                 6.4399                 6.6188
 IR Inten    --     41.0247                67.8667                63.1394

                    148                    149                    150
                      A                      A                      A
 Frequencies --   3204.7743              3207.8683              3208.6350
 Red. masses --      1.0992                 1.1013                 1.0966
 Frc consts  --      6.6515                 6.6769                 6.6520
 IR Inten    --     48.1097                62.6638                42.1475

                    151                    152                    153
                      A                      A                      A
 Frequencies --   3228.2827              3241.5054              3245.2019
 Red. masses --      1.1013                 1.1053                 1.1053
 Frc consts  --      6.7625                 6.8428                 6.8580
 IR Inten    --     22.0750                49.0218                40.3626

                    154                    155                    156
                      A                      A                      A
 Frequencies --   3246.4031              3253.8110              3275.7545
 Red. masses --      1.1062                 1.1008                 1.0890
 Frc consts  --      6.8690                 6.8667                 6.8850
 IR Inten    --     38.2437                33.4907                 9.7115

                    157                    158                    159
                      A                      A                      A
 Frequencies --   3344.4009              3348.7429              3352.7187
 Red. masses --      1.0928                 1.0928                 1.0928
 Frc consts  --      7.2014                 7.2204                 7.2375
 IR Inten    --      1.6369                 7.9034                 5.5911

 - Thermochemistry -
 -------------------
 Temperature   298.150 Kelvin.  Pressure   1.00000 Atm.
 Atom     1 has atomic number  6 and mass  12.00000

 Molecular mass:   512.09396 amu.
 Principal axes and moments of inertia in atomic units:
                           1         2         3
     Eigenvalues --  ******************************
           X            0.99994  -0.00114   0.01090
           Y            0.00025   0.99668   0.08140
           Z           -0.01095  -0.08139   0.99662
 This molecule is an asymmetric top.
 Rotational symmetry number  1.
 Warning -- assumption of classical behavior for rotation
           may cause significant error
 Rotational temperatures (Kelvin)      0.00733     0.00393     0.00362
 Rotational constants (GHZ):           0.15264     0.08194     0.07547
 Zero-point vibrational energy    1125948.6 (Joules/Mol)
                                  269.10817 (Kcal/Mol)
 Warning -- explicit consideration of  54 degrees of freedom as
           vibrations may cause significant error
 Vibrational temperatures:     21.29    27.47    34.88    39.00    51.33
          (Kelvin)             56.58    72.48    73.95    81.64    94.85
                              105.92   117.29   123.61   149.61   152.21
                              160.43   175.34   225.64   227.51   239.11
                              249.83   263.16   275.66   284.22   291.31
                              333.53   355.38   365.51   376.66   386.36
                              423.79   428.65   436.23   442.03   471.51
                              481.07   515.03   529.75   535.38   555.18
                              620.17   630.68   658.55   678.67   697.90
                              705.85   745.59   750.98   784.33   800.10
                              810.94   847.11   854.37   882.90   911.54
                              921.42   950.42  1016.48  1020.25  1035.50
                             1062.80  1078.95  1103.09  1245.72  1270.78
                             1293.13  1300.97  1340.76  1394.71  1403.69
                             1441.59  1463.21  1466.92  1477.76  1514.87
                             1532.43  1551.20  1576.27  1636.39  1682.75
                             1685.22  1697.15  1699.87  1703.37  1716.21
                             1747.90  1756.05  1758.42  1772.39  1775.38
                             1778.09  1783.42  1792.44  1794.32  1803.99
                             1816.61  1818.16  1830.69  1841.79  1845.42
                             1857.94  1862.91  1865.11  1908.07  1940.33
                             1956.13  1966.43  2011.63  2013.18  2033.04
                             2040.56  2065.51  2068.71  2084.94  2100.62
                             2117.17  2133.72  2155.40  2159.61  2178.26
                             2230.29  2237.94  2238.99  2239.96  2243.75
                             2247.35  2253.50  2255.58  2256.31  2266.42
                             2267.66  2279.78  2289.00  2289.75  2294.07
                             2494.33  2523.05  4487.33  4498.44  4502.37
                             4504.54  4507.60  4532.23  4534.10  4548.31
                             4566.23  4584.06  4610.96  4615.41  4616.51
                             4644.78  4663.80  4669.12  4670.85  4681.51
                             4713.08  4811.85  4818.09  4823.81

 Zero-point correction=                           0.428851 (Hartree/Particle)
 Thermal correction to Energy=                    0.461588
 Thermal correction to Enthalpy=                  0.462532
 Thermal correction to Gibbs Free Energy=         0.359886
 Sum of electronic and zero-point Energies=          -2296.710649
 Sum of electronic and thermal Energies=             -2296.677913
 Sum of electronic and thermal Enthalpies=           -2296.676969
 Sum of electronic and thermal Free Energies=        -2296.779615

                     E (Thermal)             CV                S
                      KCal/Mol        Cal/Mol-Kelvin    Cal/Mol-Kelvin
 Total                  289.651            116.788            216.038
 Electronic               0.000              0.000              0.000
 Translational            0.889              2.981             44.587
 Rotational               0.889              2.981             37.074
 Vibrational            287.873            110.826            134.377
 Vibration     1          0.593              1.986              7.233
 Vibration     2          0.593              1.986              6.727
 Vibration     3          0.593              1.985              6.252
 Vibration     4          0.593              1.984              6.031
 Vibration     5          0.594              1.982              5.486
 Vibration     6          0.594              1.981              5.293
 Vibration     7          0.595              1.977              4.803
 Vibration     8          0.596              1.977              4.763
 Vibration     9          0.596              1.975              4.567
 Vibration    10          0.597              1.971              4.272
 Vibration    11          0.599              1.966              4.054
 Vibration    12          0.600              1.962              3.854
 Vibration    13          0.601              1.959              3.751
 Vibration    14          0.605              1.946              3.378
 Vibration    15          0.605              1.945              3.345
 Vibration    16          0.607              1.940              3.243
 Vibration    17          0.609              1.931              3.071
 Vibration    18          0.620              1.895              2.588
 Vibration    19          0.621              1.894              2.572
 Vibration    20          0.624              1.884              2.478
 Vibration    21          0.627              1.875              2.396
 Vibration    22          0.630              1.863              2.299
 Vibration    23          0.634              1.851              2.212
 Vibration    24          0.637              1.843              2.156
 Vibration    25          0.639              1.836              2.111
 Vibration    26          0.653              1.792              1.865
 Vibration    27          0.661              1.768              1.752
 Vibration    28          0.665              1.756              1.702
 Vibration    29          0.669              1.743              1.650
 Vibration    30          0.673              1.731              1.606
 Vibration    31          0.689              1.684              1.448
 Vibration    32          0.691              1.678              1.429
 Vibration    33          0.695              1.668              1.399
 Vibration    34          0.697              1.660              1.377
 Vibration    35          0.711              1.620              1.271
 Vibration    36          0.716              1.607              1.239
 Vibration    37          0.733              1.559              1.131
 Vibration    38          0.741              1.538              1.087
 Vibration    39          0.744              1.529              1.071
 Vibration    40          0.755              1.500              1.016
 Vibration    41          0.792              1.403              0.855
 Vibration    42          0.799              1.387              0.832
 Vibration    43          0.816              1.344              0.773
 Vibration    44          0.829              1.313              0.733
 Vibration    45          0.841              1.283              0.697
 Vibration    46          0.846              1.271              0.682
 Vibration    47          0.873              1.210              0.614
 Vibration    48          0.877              1.201              0.605
 Vibration    49          0.900              1.150              0.554
 Vibration    50          0.912              1.126              0.532
 Vibration    51          0.919              1.110              0.517
 Vibration    52          0.946              1.056              0.469
 Vibration    53          0.951              1.045              0.460
 Vibration    54          0.973              1.003              0.427

                           ! Non-Optimized Parameters !
 Normal termination of Gaussian 16 at Wed Jun  5 17:29:18 2019.
