 Gaussian 16, Revision A.03,
 Gaussian 16:  AS64L-G16RevA.03 25-Dec-2016

 ----------------------------------------------------------------------
 #p opt freq=noraman 6-31g(d) scrf=(solvent=tetrahydrofuran,pcm) pop=no
 ne empiricaldispersion=gd3bj pbe1pbe
 ----------------------------------------------------------------------

 -----
 title
 -----
 Symbolic Z-matrix:
 Charge =  0 Multiplicity = 1

 SCF Done:  E(RPBE1PBE) =  -2296.01679131     A.U. after   13 cycles
 Optimization completed.
    -- Stationary point found.
 Normal termination of Gaussian 16 at Sun Jun  9 21:31:11 2019.

 ----------------------------------------------------------------------
 #P Geom=AllCheck Guess=TCheck SCRF=Check GenChk RPBE1PBE/6-31G(d) Freq
 ----------------------------------------------------------------------

 Structure from the checkpoint file:  "/scratch/users/ekwan/clay_new-glu_gluC6-bisCF3-sm-pbe0_d3bj-631gd-pcm_thf/Gau-55448.chk"
 -----
 title
 -----
 Charge =  0 Multiplicity = 1

                         Standard orientation:
 ---------------------------------------------------------------------
 Center     Atomic      Atomic             Coordinates (Angstroms)
 Number     Number       Type             X           Y           Z
 ---------------------------------------------------------------------
      1          6           0        3.398989    0.362075    0.580624
      2          6           0        3.298185   -0.516972   -0.661044
      3          6           0        1.836125   -0.820217   -1.002456
      4          6           0        1.048094    1.126641    0.100835
      5          6           0        2.464967    1.558597    0.461560
      6          1           0        1.737375   -1.327170   -1.963833
      7          1           0        3.697702    0.052539   -1.516945
      8          1           0        3.100427   -0.226548    1.460434
      9          1           0        0.631272    0.542265    0.933631
     10          1           0        2.836780    2.219998   -0.332444
     11          8           0        1.054332    0.315412   -1.081115
     12          8           0        1.366712   -1.716312    0.033322
     13          8           0        4.051455   -1.676964   -0.447188
     14          8           0        4.708576    0.856282    0.739526
     15          8           0        2.397148    2.244838    1.690336
     16          6           0        0.127633    2.312943   -0.133740
     17          1           0       -0.051333    2.779976    0.838491
     18          1           0       -0.832112    1.949685   -0.527950
     19          8           0        0.657425    3.318295   -0.961131
     20         16           0        0.089588   -2.653724   -0.295126
     21          8           0        0.076343   -3.631081    0.773607
     22          8           0        0.146969   -3.050949   -1.692676
     23          6           0       -1.281887   -1.550846   -0.079376
     24          6           0       -1.746099   -1.302292    1.205907
     25          6           0       -1.829394   -0.929971   -1.195273
     26          6           0       -2.790542   -0.397751    1.370904
     27          1           0       -1.302367   -1.805054    2.058570
     28          6           0       -2.870934   -0.030421   -1.006824
     29          1           0       -1.446752   -1.145004   -2.186057
     30          6           0       -3.353481    0.240379    0.271092
     31          1           0       -4.163637    0.948419    0.409151
     32          6           0        4.259912   -2.455309   -1.606746
     33          1           0        3.343329   -2.966035   -1.931481
     34          1           0        4.640569   -1.841951   -2.435654
     35          1           0        5.005023   -3.210461   -1.348994
     36          6           0        5.511838    0.105286    1.626431
     37          1           0        6.474849    0.618426    1.686748
     38          1           0        5.064962    0.069647    2.630172
     39          1           0        5.664782   -0.917303    1.265798
     40          6           0        3.090548    3.476232    1.693617
     41          1           0        2.953423    3.911979    2.686475
     42          1           0        4.160370    3.329576    1.505938
     43          1           0        2.678960    4.161430    0.940231
     44          6           0        0.601155    3.025764   -2.342472
     45          1           0        0.838032    3.952571   -2.871050
     46          1           0       -0.404924    2.693182   -2.633414
     47          1           0        1.320815    2.251152   -2.631271
     48          6           0       -3.346952   -0.148504    2.745588
     49          9           0       -2.405144   -0.290916    3.687801
     50          9           0       -4.334079   -1.010568    3.034331
     51          9           0       -3.853604    1.087479    2.852289
     52          6           0       -3.435609    0.721003   -2.179069
     53          9           0       -2.896922    1.953473   -2.263736
     54          9           0       -4.760425    0.882239   -2.068178
     55          9           0       -3.188484    0.098544   -3.336876
 ---------------------------------------------------------------------

 SCF Done:  E(RPBE1PBE) =  -2296.01679131     A.U. after    1 cycles

 Isotropic polarizability for W=    0.000000      270.83 Bohr**3.
 End of Minotr F.D. properties file   721 does not exist.

                      1                      2                      3
                      A                      A                      A
 Frequencies --     12.9252                14.1840                20.0495
 Red. masses --     10.6364                 6.2884                16.1231
 Frc consts  --      0.0010                 0.0007                 0.0038
 IR Inten    --      0.0900                 0.2431                 0.0159

                      4                      5                      6
                      A                      A                      A
 Frequencies --     21.8359                33.0705                39.1092
 Red. masses --     12.4307                 4.7837                 5.3234
 Frc consts  --      0.0035                 0.0031                 0.0048
 IR Inten    --      0.0457                 0.2282                 1.0073

                      7                      8                      9
                      A                      A                      A
 Frequencies --     52.2811                52.4592                62.1838
 Red. masses --      3.3853                 4.4595                 3.8452
 Frc consts  --      0.0055                 0.0072                 0.0088
 IR Inten    --      1.5621                 1.1510                 3.4878

                     10                     11                     12
                      A                      A                      A
 Frequencies --     68.9711                72.5581                84.5022
 Red. masses --      3.3845                 3.4820                 2.8392
 Frc consts  --      0.0095                 0.0108                 0.0119
 IR Inten    --      3.2503                 3.3482                 4.4570

                     13                     14                     15
                      A                      A                      A
 Frequencies --     93.2782                99.7323               103.1326
 Red. masses --      3.8549                10.4807                 7.9974
 Frc consts  --      0.0198                 0.0614                 0.0501
 IR Inten    --      2.6106                 3.7020                 3.0209

                     16                     17                     18
                      A                      A                      A
 Frequencies --    113.9515               124.6310               151.6427
 Red. masses --      6.6298                 2.4356                 7.5558
 Frc consts  --      0.0507                 0.0223                 0.1024
 IR Inten    --      0.6368                 3.2526                 0.3363

                     19                     20                     21
                      A                      A                      A
 Frequencies --    161.1859               169.3243               171.8644
 Red. masses --      1.5899                 3.6928                 2.4561
 Frc consts  --      0.0243                 0.0624                 0.0427
 IR Inten    --      0.8152                 0.4445                 1.2650

                     22                     23                     24
                      A                      A                      A
 Frequencies --    182.2265               193.3632               200.0576
 Red. masses --      1.8743                 1.8006                 2.6582
 Frc consts  --      0.0367                 0.0397                 0.0627
 IR Inten    --      0.2689                 2.6607                 8.9307

                     25                     26                     27
                      A                      A                      A
 Frequencies --    210.8366               229.4232               235.2988
 Red. masses --      1.6189                 1.9917                 9.5866
 Frc consts  --      0.0424                 0.0618                 0.3127
 IR Inten    --      0.4082                 8.2105                 0.7789

                     28                     29                     30
                      A                      A                      A
 Frequencies --    246.4428               256.2692               265.6846
 Red. masses --      3.4766                 7.3318                 3.4638
 Frc consts  --      0.1244                 0.2837                 0.1441
 IR Inten    --      3.9202                 6.6866                11.8806

                     31                     32                     33
                      A                      A                      A
 Frequencies --    282.2910               288.6622               294.9745
 Red. masses --     11.4970                 4.8383                 7.4462
 Frc consts  --      0.5398                 0.2375                 0.3817
 IR Inten    --      3.9173                10.8073                 9.3227

                     34                     35                     36
                      A                      A                      A
 Frequencies --    296.6602               315.1128               328.0481
 Red. masses --     10.2934                 5.3768                 3.9605
 Frc consts  --      0.5337                 0.3146                 0.2511
 IR Inten    --      5.1190                 0.2300                 3.5064

                     37                     38                     39
                      A                      A                      A
 Frequencies --    345.5718               355.0877               362.2618
 Red. masses --      7.4455                 6.1043                 4.9717
 Frc consts  --      0.5239                 0.4535                 0.3844
 IR Inten    --      1.6033                 3.3236                 7.8779

                     40                     41                     42
                      A                      A                      A
 Frequencies --    372.5529               415.2863               426.2019
 Red. masses --      9.2174                10.1078                 8.7150
 Frc consts  --      0.7538                 1.0271                 0.9327
 IR Inten    --     15.8514                15.3611                 6.8163

                     43                     44                     45
                      A                      A                      A
 Frequencies --    436.1477               457.2294               470.7767
 Red. masses --      2.1182                 5.9036                 8.7158
 Frc consts  --      0.2374                 0.7272                 1.1381
 IR Inten    --      8.5014                 8.1656                18.5259

                     46                     47                     48
                      A                      A                      A
 Frequencies --    477.4501               495.9972               502.2864
 Red. masses --      4.0218                 7.8011                11.8080
 Frc consts  --      0.5402                 1.1307                 1.7552
 IR Inten    --      7.7491                13.5218                 1.7275

                     49                     50                     51
                      A                      A                      A
 Frequencies --    526.8970               535.1472               546.6073
 Red. masses --      4.8363                 8.0607                 5.3407
 Frc consts  --      0.7911                 1.3601                 0.9402
 IR Inten    --     43.5558                28.0889                 9.3267

                     52                     53                     54
                      A                      A                      A
 Frequencies --    572.6979               574.6358               586.8135
 Red. masses --      4.7757                 8.1566                10.2585
 Frc consts  --      0.9229                 1.5869                 2.0813
 IR Inten    --     47.8676                10.7152               235.5479

                     55                     56                     57
                      A                      A                      A
 Frequencies --    610.3751               618.4461               651.6186
 Red. masses --      6.7856                 8.1973                 5.6072
 Frc consts  --      1.4895                 1.8472                 1.4028
 IR Inten    --     32.2733                 2.8452                14.1871

                     58                     59                     60
                      A                      A                      A
 Frequencies --    680.6736               685.4355               694.5883
 Red. masses --      7.8192                12.8633                 5.8396
 Frc consts  --      2.1345                 3.5607                 1.6599
 IR Inten    --      1.2364                59.7384                29.9502

                     61                     62                     63
                      A                      A                      A
 Frequencies --    711.9761               727.1458               749.2186
 Red. masses --      2.5517                10.5524                 5.2204
 Frc consts  --      0.7621                 3.2873                 1.7265
 IR Inten    --     31.1933                 1.1492                52.7205

                     64                     65                     66
                      A                      A                      A
 Frequencies --    832.1820               856.4904               864.8869
 Red. masses --      6.6162                 3.6984                11.1503
 Frc consts  --      2.6996                 1.5985                 4.9142
 IR Inten    --    258.9514                33.9658               321.7489

                     67                     68                     69
                      A                      A                      A
 Frequencies --    874.1684               905.2325               920.3806
 Red. masses --     11.9248                 3.8147                 1.6154
 Frc consts  --      5.3690                 1.8418                 0.8062
 IR Inten    --     22.8957                81.1181                73.7822

                     70                     71                     72
                      A                      A                      A
 Frequencies --    948.7969               951.8074               956.7190
 Red. masses --      2.3528                 1.4957                 1.3755
 Frc consts  --      1.2479                 0.7983                 0.7418
 IR Inten    --     24.2469                 1.8002                 4.6356

                     73                     74                     75
                      A                      A                      A
 Frequencies --    995.4888              1001.9768              1021.7611
 Red. masses --      4.7340                 3.9626                 6.3552
 Frc consts  --      2.7641                 2.3439                 3.9091
 IR Inten    --     27.4097                36.5377                 2.7823

                     76                     77                     78
                      A                      A                      A
 Frequencies --   1037.9158              1049.7545              1066.2032
 Red. masses --      3.9295                 3.7233                 3.7971
 Frc consts  --      2.4941                 2.4174                 2.5432
 IR Inten    --     41.4509                 9.6644               134.8855

                     79                     80                     81
                      A                      A                      A
 Frequencies --   1106.7700              1134.2184              1137.8055
 Red. masses --      2.8029                 4.6435                 2.6841
 Frc consts  --      2.0229                 3.5196                 2.0473
 IR Inten    --     12.7961                29.2409                72.8689

                     82                     83                     84
                      A                      A                      A
 Frequencies --   1142.8860              1146.5964              1151.9940
 Red. masses --      2.3819                 1.8641                 2.2573
 Frc consts  --      1.8331                 1.4439                 1.7650
 IR Inten    --    105.7904                46.2768                 5.1994

                     85                     86                     87
                      A                      A                      A
 Frequencies --   1159.9258              1183.1603              1184.2945
 Red. masses --      2.4339                 3.6348                 4.1794
 Frc consts  --      1.9293                 2.9979                 3.4537
 IR Inten    --    203.6392                34.9825               336.6941

                     88                     89                     90
                      A                      A                      A
 Frequencies --   1188.1535              1189.6067              1191.0233
 Red. masses --      2.2518                 1.5651                 1.2853
 Frc consts  --      1.8729                 1.3050                 1.0742
 IR Inten    --    322.7126                78.4771                 6.2402

                     91                     92                     93
                      A                      A                      A
 Frequencies --   1191.3041              1197.3021              1199.9474
 Red. masses --      1.3555                 1.4079                 8.0852
 Frc consts  --      1.1334                 1.1891                 6.8591
 IR Inten    --      4.5963                34.5468               393.6475

                     94                     95                     96
                      A                      A                      A
 Frequencies --   1203.6421              1213.2397              1215.9096
 Red. masses --      1.7515                 3.1115                12.0550
 Frc consts  --      1.4951                 2.6985                10.5007
 IR Inten    --     66.9946                89.3569               330.2357

                     97                     98                     99
                      A                      A                      A
 Frequencies --   1223.7592              1225.3698              1234.4859
 Red. masses --      1.9048                 4.3467                 1.6854
 Frc consts  --      1.6807                 3.8454                 1.5133
 IR Inten    --    153.1256               177.9148                39.9802

                    100                    101                    102
                      A                      A                      A
 Frequencies --   1241.4382              1246.9248              1247.2054
 Red. masses --      7.9858                 2.6702                 3.4069
 Frc consts  --      7.2514                 2.4461                 3.1224
 IR Inten    --    176.2854               140.2139               125.9694

                    103                    104                    105
                      A                      A                      A
 Frequencies --   1251.0307              1276.3959              1302.8971
 Red. masses --      2.2852                 1.8666                 1.7577
 Frc consts  --      2.1072                 1.7917                 1.7580
 IR Inten    --     79.0296                11.7003               365.3560

                    106                    107                    108
                      A                      A                      A
 Frequencies --   1310.2859              1314.2001              1346.4053
 Red. masses --      1.4979                 2.1023                 1.2635
 Frc consts  --      1.5152                 2.1392                 1.3495
 IR Inten    --      8.9187               472.3523                 9.8769

                    109                    110                    111
                      A                      A                      A
 Frequencies --   1352.8108              1374.8327              1376.6123
 Red. masses --      1.4490                 1.5451                 1.3420
 Frc consts  --      1.5624                 1.7207                 1.4984
 IR Inten    --      8.2039                87.2729                35.3157

                    112                    113                    114
                      A                      A                      A
 Frequencies --   1381.9637              1397.4878              1401.5498
 Red. masses --      2.7314                 1.4011                 6.3706
 Frc consts  --      3.0734                 1.6122                 7.3730
 IR Inten    --    171.4499                 7.5709               163.3907

                    115                    116                    117
                      A                      A                      A
 Frequencies --   1407.9519              1412.4764              1419.7368
 Red. masses --      2.9637                 2.1447                 1.3425
 Frc consts  --      3.4614                 2.5211                 1.5944
 IR Inten    --      7.5392                27.0201                 4.5612

                    118                    119                    120
                      A                      A                      A
 Frequencies --   1434.6058              1438.4106              1452.2567
 Red. masses --      1.5455                 1.3348                 1.4270
 Frc consts  --      1.8741                 1.6271                 1.7732
 IR Inten    --     29.2246                17.0368                 9.7348

                    121                    122                    123
                      A                      A                      A
 Frequencies --   1486.9778              1495.8943              1496.4918
 Red. masses --      1.0862                 1.1863                 1.1490
 Frc consts  --      1.4150                 1.5641                 1.5161
 IR Inten    --      3.3837                 1.1455                 3.3557

                    124                    125                    126
                      A                      A                      A
 Frequencies --   1498.7459              1504.9056              1506.4516
 Red. masses --      1.1439                 4.1702                 1.0498
 Frc consts  --      1.5139                 5.5645                 1.4037
 IR Inten    --      5.5604                 2.0528                 2.9585

                    127                    128                    129
                      A                      A                      A
 Frequencies --   1508.5647              1509.8401              1515.3226
 Red. masses --      1.0804                 1.0555                 1.1144
 Frc consts  --      1.4487                 1.4177                 1.5077
 IR Inten    --     15.1252                 0.9506                 1.0709

                    130                    131                    132
                      A                      A                      A
 Frequencies --   1518.3670              1518.9830              1532.4266
 Red. masses --      3.2531                 1.2038                 1.0490
 Frc consts  --      4.4188                 1.6365                 1.4514
 IR Inten    --      0.3066                 4.8568                13.4270

                    133                    134                    135
                      A                      A                      A
 Frequencies --   1534.9347              1535.8342              1537.2333
 Red. masses --      1.0481                 1.0495                 1.0599
 Frc consts  --      1.4549                 1.4586                 1.4758
 IR Inten    --      5.6409                11.5173                 9.6724

                    136                    137                    138
                      A                      A                      A
 Frequencies --   1681.1202              1700.6285              3023.6530
 Red. masses --      6.8407                 6.4917                 1.0815
 Frc consts  --     11.3907                11.0618                 5.8257
 IR Inten    --     20.5810                24.3522                29.2288

                    139                    140                    141
                      A                      A                      A
 Frequencies --   3038.0481              3044.1550              3048.6151
 Red. masses --      1.0364                 1.0391                 1.0345
 Frc consts  --      5.6358                 5.6733                 5.6647
 IR Inten    --     68.8051                66.4063                66.4392

                    142                    143                    144
                      A                      A                      A
 Frequencies --   3050.7310              3059.6735              3062.4896
 Red. masses --      1.0341                 1.0829                 1.0755
 Frc consts  --      5.6706                 5.9729                 5.9431
 IR Inten    --     48.4749                19.2916                 9.6366

                    145                    146                    147
                      A                      A                      A
 Frequencies --   3071.7921              3083.6220              3102.6165
 Red. masses --      1.0727                 1.0847                 1.1060
 Frc consts  --      5.9634                 6.0770                 6.2730
 IR Inten    --     39.5050                66.3068                57.6124

                    148                    149                    150
                      A                      A                      A
 Frequencies --   3123.7687              3126.0198              3128.3790
 Red. masses --      1.1031                 1.1036                 1.0967
 Frc consts  --      6.3417                 6.3543                 6.3236
 IR Inten    --     40.8941                48.3998                45.0645

                    151                    152                    153
                      A                      A                      A
 Frequencies --   3156.2904              3166.5877              3168.9751
 Red. masses --      1.0987                 1.0882                 1.1036
 Frc consts  --      6.4489                 6.4287                 6.5297
 IR Inten    --     17.5920                13.0363                41.9015

                    154                    155                    156
                      A                      A                      A
 Frequencies --   3171.3472              3173.3778              3180.6193
 Red. masses --      1.1035                 1.1048                 1.0999
 Frc consts  --      6.5392                 6.5550                 6.5559
 IR Inten    --     35.3355                32.8601                27.1070

                    157                    158                    159
                      A                      A                      A
 Frequencies --   3259.1908              3260.3015              3272.0891
 Red. masses --      1.0928                 1.0922                 1.0925
 Frc consts  --      6.8393                 6.8402                 6.8919
 IR Inten    --      6.4037                 2.0800                 7.9424

 - Thermochemistry -
 -------------------
 Temperature   298.150 Kelvin.  Pressure   1.00000 Atm.
 Atom     1 has atomic number  6 and mass  12.00000

 Molecular mass:   512.09396 amu.
 Principal axes and moments of inertia in atomic units:
                           1         2         3
     Eigenvalues --  ******************************
           X            0.99995   0.00610   0.00781
           Y           -0.00736   0.98477   0.17372
           Z           -0.00663  -0.17377   0.98476
 This molecule is an asymmetric top.
 Rotational symmetry number  1.
 Warning -- assumption of classical behavior for rotation
           may cause significant error
 Rotational temperatures (Kelvin)      0.00730     0.00408     0.00401
 Rotational constants (GHZ):           0.15209     0.08507     0.08346
 Zero-point vibrational energy    1091503.0 (Joules/Mol)
                                  260.87548 (Kcal/Mol)
 Warning -- explicit consideration of  56 degrees of freedom as
           vibrations may cause significant error
 Vibrational temperatures:     18.60    20.41    28.85    31.42    47.58
          (Kelvin)             56.27    75.22    75.48    89.47    99.23
                              104.39   121.58   134.21   143.49   148.38
                              163.95   179.32   218.18   231.91   243.62
                              247.27   262.18   278.21   287.84   303.35
                              330.09   338.54   354.58   368.71   382.26
                              406.15   415.32   424.40   426.83   453.38
                              471.99   497.20   510.89   521.21   536.02
                              597.50   613.21   627.52   657.85   677.34
                              686.94   713.63   722.68   758.09   769.96
                              786.45   823.98   826.77   844.29   878.19
                              889.81   937.53   979.34   986.19   999.36
                             1024.37  1046.20  1077.96  1197.32  1232.30
                             1244.38  1257.73  1302.43  1324.22  1365.11
                             1369.44  1376.51  1432.29  1441.62  1470.09
                             1493.33  1510.36  1534.03  1592.40  1631.89
                             1637.05  1644.36  1649.70  1657.46  1668.87
                             1702.30  1703.94  1709.49  1711.58  1713.62
                             1714.02  1722.65  1726.46  1731.77  1745.58
                             1749.42  1760.72  1763.03  1776.15  1786.15
                             1794.05  1794.45  1799.95  1836.45  1874.58
                             1885.21  1890.84  1937.18  1946.39  1978.08
                             1980.64  1988.34  2010.67  2016.52  2025.73
                             2032.24  2042.68  2064.08  2069.55  2089.47
                             2139.43  2152.26  2153.12  2156.36  2165.22
                             2167.45  2170.49  2172.32  2180.21  2184.59
                             2185.48  2204.82  2208.43  2209.72  2211.74
                             2418.76  2446.83  4350.36  4371.07  4379.86
                             4386.28  4389.32  4402.19  4406.24  4419.62
                             4436.64  4463.97  4494.41  4497.65  4501.04
                             4541.20  4556.01  4559.45  4562.86  4565.78
                             4576.20  4689.25  4690.85  4707.81

 Zero-point correction=                           0.415732 (Hartree/Particle)
 Thermal correction to Energy=                    0.449071
 Thermal correction to Enthalpy=                  0.450015
 Thermal correction to Gibbs Free Energy=         0.345880
 Sum of electronic and zero-point Energies=          -2295.601060
 Sum of electronic and thermal Energies=             -2295.567720
 Sum of electronic and thermal Enthalpies=           -2295.566776
 Sum of electronic and thermal Free Energies=        -2295.670911

                     E (Thermal)             CV                S
                      KCal/Mol        Cal/Mol-Kelvin    Cal/Mol-Kelvin
 Total                  281.796            119.700            219.171
 Electronic               0.000              0.000              0.000
 Translational            0.889              2.981             44.587
 Rotational               0.889              2.981             36.941
 Vibrational            280.019            113.738            137.643
 Vibration     1          0.593              1.987              7.501
 Vibration     2          0.593              1.986              7.317
 Vibration     3          0.593              1.986              6.629
 Vibration     4          0.593              1.985              6.460
 Vibration     5          0.594              1.983              5.636
 Vibration     6          0.594              1.981              5.304
 Vibration     7          0.596              1.977              4.729
 Vibration     8          0.596              1.977              4.722
 Vibration     9          0.597              1.972              4.387
 Vibration    10          0.598              1.969              4.183
 Vibration    11          0.599              1.967              4.083
 Vibration    12          0.601              1.960              3.783
 Vibration    13          0.602              1.954              3.590
 Vibration    14          0.604              1.949              3.460
 Vibration    15          0.605              1.947              3.394
 Vibration    16          0.607              1.938              3.200
 Vibration    17          0.610              1.928              3.027
 Vibration    18          0.619              1.901              2.652
 Vibration    19          0.622              1.890              2.536
 Vibration    20          0.625              1.880              2.443
 Vibration    21          0.626              1.877              2.415
 Vibration    22          0.630              1.864              2.305
 Vibration    23          0.635              1.849              2.195
 Vibration    24          0.638              1.840              2.133
 Vibration    25          0.643              1.824              2.036
 Vibration    26          0.652              1.796              1.883
 Vibration    27          0.655              1.787              1.838
 Vibration    28          0.661              1.769              1.756
 Vibration    29          0.666              1.752              1.687
 Vibration    30          0.672              1.736              1.624
 Vibration    31          0.681              1.706              1.520
 Vibration    32          0.685              1.695              1.482
 Vibration    33          0.689              1.683              1.445
 Vibration    34          0.690              1.680              1.436
 Vibration    35          0.702              1.645              1.335
 Vibration    36          0.711              1.619              1.270
 Vibration    37          0.724              1.584              1.186
 Vibration    38          0.731              1.565              1.144
 Vibration    39          0.736              1.550              1.112
 Vibration    40          0.744              1.528              1.069
 Vibration    41          0.779              1.437              0.908
 Vibration    42          0.788              1.413              0.871
 Vibration    43          0.797              1.391              0.839
 Vibration    44          0.815              1.345              0.774
 Vibration    45          0.828              1.315              0.735
 Vibration    46          0.834              1.300              0.717
 Vibration    47          0.852              1.259              0.668
 Vibration    48          0.858              1.245              0.652
 Vibration    49          0.882              1.190              0.594
 Vibration    50          0.890              1.172              0.576
 Vibration    51          0.902              1.147              0.551
 Vibration    52          0.929              1.090              0.499
 Vibration    53          0.931              1.086              0.495
 Vibration    54          0.944              1.060              0.473
 Vibration    55          0.969              1.010              0.432
 Vibration    56          0.978              0.993              0.419

                           ! Non-Optimized Parameters !
 Normal termination of Gaussian 16 at Sun Jun  9 21:55:37 2019.
