 Gaussian 16, Revision A.03,
 Gaussian 16:  AS64L-G16RevA.03 25-Dec-2016

 ----------------------------------------------------------------------
 #p opt freq=noraman pop=none 6-31g* scrf=(pcm,solvent=tetrahydrofuran)
  lc-wpbe empiricaldispersion=gd3bj extrabasis
 ----------------------------------------------------------------------

 -----
 title
 -----
 Symbolic Z-matrix:
 Charge =  0 Multiplicity = 1

 SCF Done:  E(RLC-wPBE) =  -2296.92374172     A.U. after   14 cycles
 Optimization completed.
    -- Stationary point found.
 Normal termination of Gaussian 16 at Sat Jun 15 08:05:42 2019.

 --------------------------------------------------------------------
 #P Geom=AllCheck Guess=TCheck SCRF=Check GenChk RLC-wPBE/ChkBas Freq
 --------------------------------------------------------------------

 Structure from the checkpoint file:  "/scratch/users/ekwan/clay_new-glu_gluC6-bisCF3-sm-lcwpbe_d3bj-custom-pcm_thf/Gau-17029.chk"
 -----
 title
 -----
 Charge =  0 Multiplicity = 1

                         Standard orientation:
 ---------------------------------------------------------------------
 Center     Atomic      Atomic             Coordinates (Angstroms)
 Number     Number       Type             X           Y           Z
 ---------------------------------------------------------------------
      1          6           0        3.350272    0.386142    0.581880
      2          6           0        3.292750   -0.515143   -0.640925
      3          6           0        1.847021   -0.856068   -0.998984
      4          6           0        1.009640    1.105901    0.031908
      5          6           0        2.410498    1.565409    0.405663
      6          1           0        1.774863   -1.397120   -1.943142
      7          1           0        3.697186    0.046393   -1.497086
      8          1           0        3.036150   -0.181629    1.467927
      9          1           0        0.584717    0.543374    0.873214
     10          1           0        2.793359    2.205137   -0.398611
     11          8           0        1.046895    0.260766   -1.122653
     12          8           0        1.372056   -1.722814    0.055832
     13          8           0        4.065023   -1.653402   -0.393411
     14          8           0        4.650112    0.893942    0.757319
     15          8           0        2.311324    2.285471    1.609931
     16          6           0        0.088522    2.277065   -0.255025
     17          1           0       -0.126713    2.763482    0.698573
     18          1           0       -0.852700    1.900956   -0.674769
     19          8           0        0.641617    3.264501   -1.087006
     20         16           0        0.101387   -2.655945   -0.230797
     21          8           0        0.093167   -3.605969    0.857762
     22          8           0        0.147505   -3.095414   -1.611615
     23          6           0       -1.262187   -1.552869   -0.035719
     24          6           0       -1.708388   -1.263336    1.242742
     25          6           0       -1.822965   -0.972546   -1.160883
     26          6           0       -2.749587   -0.360487    1.389481
     27          1           0       -1.250432   -1.733002    2.106772
     28          6           0       -2.862608   -0.075245   -0.989497
     29          1           0       -1.452112   -1.217781   -2.149321
     30          6           0       -3.327503    0.235721    0.279932
     31          1           0       -4.138611    0.944903    0.404315
     32          6           0        4.372353   -2.409589   -1.546025
     33          1           0        3.494699   -2.938434   -1.935399
     34          1           0        4.788481   -1.771897   -2.335675
     35          1           0        5.119034   -3.147120   -1.250754
     36          6           0        5.415060    0.207083    1.725317
     37          1           0        6.388107    0.699709    1.766436
     38          1           0        4.943840    0.268883    2.714362
     39          1           0        5.550910   -0.844019    1.455574
     40          6           0        2.961004    3.539794    1.575755
     41          1           0        2.810792    4.001843    2.553093
     42          1           0        4.033410    3.421115    1.391841
     43          1           0        2.525891    4.183172    0.801922
     44          6           0        0.647024    2.931816   -2.459604
     45          1           0        0.868267    3.848998   -3.008508
     46          1           0       -0.333233    2.552925   -2.773669
     47          1           0        1.404726    2.178432   -2.696897
     48          6           0       -3.288735   -0.064224    2.761366
     49          9           0       -2.337126   -0.188514    3.696636
     50          9           0       -4.281781   -0.906276    3.084362
     51          9           0       -3.780002    1.180774    2.833779
     52          6           0       -3.442727    0.630731   -2.181902
     53          9           0       -2.857776    1.831186   -2.359609
     54          9           0       -4.754770    0.851527   -2.031601
     55          9           0       -3.264218   -0.069893   -3.307967
 ---------------------------------------------------------------------

 SCF Done:  E(RLC-wPBE) =  -2296.92374172     A.U. after    1 cycles

 Isotropic polarizability for W=    0.000000      265.63 Bohr**3.
 End of Minotr F.D. properties file   721 does not exist.

                      1                      2                      3
                      A                      A                      A
 Frequencies --     15.7439                19.3352                20.2565
 Red. masses --     10.7159                 8.8648                10.7443
 Frc consts  --      0.0016                 0.0020                 0.0026
 IR Inten    --      0.1675                 0.1765                 0.1475

                      4                      5                      6
                      A                      A                      A
 Frequencies --     23.1775                37.7313                45.3148
 Red. masses --     12.1323                 5.2137                 5.7199
 Frc consts  --      0.0038                 0.0044                 0.0069
 IR Inten    --      0.0401                 0.6011                 0.7130

                      7                      8                      9
                      A                      A                      A
 Frequencies --     55.8631                60.5178                64.9137
 Red. masses --      4.1219                 3.1093                 3.7566
 Frc consts  --      0.0076                 0.0067                 0.0093
 IR Inten    --      0.2713                 2.3939                 1.2678

                     10                     11                     12
                      A                      A                      A
 Frequencies --     71.5700                74.9073                86.0409
 Red. masses --      3.2337                 3.3805                 2.9974
 Frc consts  --      0.0098                 0.0112                 0.0131
 IR Inten    --      4.9287                 4.4761                 4.7482

                     13                     14                     15
                      A                      A                      A
 Frequencies --     93.6783               101.7025               104.5962
 Red. masses --      3.3768                13.3630                 9.7021
 Frc consts  --      0.0175                 0.0814                 0.0625
 IR Inten    --      3.0989                 3.7974                 3.5484

                     16                     17                     18
                      A                      A                      A
 Frequencies --    115.4183               124.1635               155.6918
 Red. masses --      5.9918                 2.4464                 7.6040
 Frc consts  --      0.0470                 0.0222                 0.1086
 IR Inten    --      0.8052                 3.7870                 0.3340

                     19                     20                     21
                      A                      A                      A
 Frequencies --    162.5072               169.4593               175.9148
 Red. masses --      1.3650                 3.6842                 2.5290
 Frc consts  --      0.0212                 0.0623                 0.0461
 IR Inten    --      0.3576                 1.0988                 1.3542

                     22                     23                     24
                      A                      A                      A
 Frequencies --    183.7389               193.2565               202.1873
 Red. masses --      1.6320                 2.0120                 2.2585
 Frc consts  --      0.0325                 0.0443                 0.0544
 IR Inten    --      0.4083                 2.8675                 5.3262

                     25                     26                     27
                      A                      A                      A
 Frequencies --    212.0981               231.2111               238.2764
 Red. masses --      1.8638                 2.3148                 9.7430
 Frc consts  --      0.0494                 0.0729                 0.3259
 IR Inten    --      1.1939                 9.9597                 0.9066

                     28                     29                     30
                      A                      A                      A
 Frequencies --    249.1491               261.8961               269.5853
 Red. masses --      3.7250                 7.8823                 3.6049
 Frc consts  --      0.1362                 0.3185                 0.1544
 IR Inten    --      6.7142                 7.8857                10.7975

                     31                     32                     33
                      A                      A                      A
 Frequencies --    286.1914               292.1311               297.8966
 Red. masses --     12.2522                 4.7642                10.2235
 Frc consts  --      0.5913                 0.2395                 0.5345
 IR Inten    --      4.3546                 8.7599                 6.1801

                     34                     35                     36
                      A                      A                      A
 Frequencies --    301.3769               318.2937               331.9683
 Red. masses --      7.4157                 5.2897                 4.0865
 Frc consts  --      0.3968                 0.3157                 0.2653
 IR Inten    --     11.6950                 0.2204                 4.1667

                     37                     38                     39
                      A                      A                      A
 Frequencies --    349.8819               359.4666               364.6782
 Red. masses --      7.5187                 5.2588                 5.6611
 Frc consts  --      0.5423                 0.4004                 0.4436
 IR Inten    --      1.7334                 1.5697                 7.4106

                     40                     41                     42
                      A                      A                      A
 Frequencies --    379.8506               419.2488               430.5600
 Red. masses --      9.1702                10.0066                 8.7325
 Frc consts  --      0.7796                 1.0363                 0.9538
 IR Inten    --     16.4150                16.3808                 6.0047

                     43                     44                     45
                      A                      A                      A
 Frequencies --    440.5152               461.7014               478.5461
 Red. masses --      2.1325                 5.8886                 8.5585
 Frc consts  --      0.2438                 0.7396                 1.1548
 IR Inten    --      9.3227                 7.8137                20.5914

                     46                     47                     48
                      A                      A                      A
 Frequencies --    485.0551               503.0052               506.3960
 Red. masses --      4.0755                 8.2570                11.0790
 Frc consts  --      0.5649                 1.2309                 1.6739
 IR Inten    --      9.1950                13.7921                 4.0436

                     49                     50                     51
                      A                      A                      A
 Frequencies --    533.6728               541.5002               555.2056
 Red. masses --      4.8219                 8.1789                 5.3203
 Frc consts  --      0.8091                 1.4130                 0.9663
 IR Inten    --     43.5057                34.8669                 7.2161

                     52                     53                     54
                      A                      A                      A
 Frequencies --    577.5791               580.6137               598.9466
 Red. masses --     12.0816                 3.9939                10.3560
 Frc consts  --      2.3746                 0.7933                 2.1889
 IR Inten    --      8.4960                43.2374               248.9184

                     55                     56                     57
                      A                      A                      A
 Frequencies --    621.3185               626.4002               661.9162
 Red. masses --      7.7239                 6.4751                 5.8773
 Frc consts  --      1.7568                 1.4969                 1.5172
 IR Inten    --     13.4015                34.3814                16.4685

                     58                     59                     60
                      A                      A                      A
 Frequencies --    689.0400               692.0728               706.6216
 Red. masses --     12.9161                 7.5667                 5.4037
 Frc consts  --      3.6130                 2.1353                 1.5897
 IR Inten    --     57.1841                 1.9705                15.3894

                     61                     62                     63
                      A                      A                      A
 Frequencies --    724.0425               733.4102               759.3961
 Red. masses --      2.2955                10.2568                 5.3445
 Frc consts  --      0.7090                 3.2505                 1.8159
 IR Inten    --     40.6133                 0.3537                34.5453

                     64                     65                     66
                      A                      A                      A
 Frequencies --    854.7377               875.0914               885.0659
 Red. masses --      4.9856                 4.5428                11.9632
 Frc consts  --      2.1460                 2.0496                 5.5214
 IR Inten    --     92.3931                 3.2836                19.9786

                     67                     68                     69
                      A                      A                      A
 Frequencies --    896.9724               936.6021               958.7515
 Red. masses --      6.3254                 4.9809                 1.7251
 Frc consts  --      2.9985                 2.5744                 0.9343
 IR Inten    --    342.6915               309.9219                66.0600

                     70                     71                     72
                      A                      A                      A
 Frequencies --    969.1772               984.3124               991.4013
 Red. masses --      2.5303                 1.3963                 1.3746
 Frc consts  --      1.4003                 0.7971                 0.7960
 IR Inten    --     18.1343                 0.8844                 4.0244

                     73                     74                     75
                      A                      A                      A
 Frequencies --   1018.6246              1023.4772              1033.4600
 Red. masses --      4.3559                 3.7124                 6.3655
 Frc consts  --      2.6629                 2.2912                 4.0057
 IR Inten    --     49.5072                27.3782                 3.8482

                     76                     77                     78
                      A                      A                      A
 Frequencies --   1063.7975              1072.3048              1086.7568
 Red. masses --      3.7491                 3.2251                 3.9676
 Frc consts  --      2.4998                 2.1849                 2.7608
 IR Inten    --     56.4488                11.4960               140.5536

                     79                     80                     81
                      A                      A                      A
 Frequencies --   1128.9079              1150.6160              1156.6527
 Red. masses --      2.5549                 2.7566                 2.5624
 Frc consts  --      1.9184                 2.1502                 2.0198
 IR Inten    --     13.0646                 8.0157                56.9350

                     82                     83                     84
                      A                      A                      A
 Frequencies --   1159.5266              1166.6643              1172.9312
 Red. masses --      1.7192                 3.0565                 1.9169
 Frc consts  --      1.3619                 2.4511                 1.5538
 IR Inten    --     10.4580               139.5263                 5.0879

                     85                     86                     87
                      A                      A                      A
 Frequencies --   1181.1246              1196.9529              1199.5413
 Red. masses --      2.0254                 1.2875                 1.2755
 Frc consts  --      1.6648                 1.0868                 1.0813
 IR Inten    --    156.0707                 5.5965                 1.7492

                     88                     89                     90
                      A                      A                      A
 Frequencies --   1201.1525              1204.7322              1207.6461
 Red. masses --      1.3243                 1.3602                 3.3700
 Frc consts  --      1.1257                 1.1632                 2.8957
 IR Inten    --     16.0106                13.2323               318.2862

                     91                     92                     93
                      A                      A                      A
 Frequencies --   1208.3165              1213.1097              1219.3715
 Red. masses --      2.4493                 1.9105                 1.5203
 Frc consts  --      2.1070                 1.6565                 1.3318
 IR Inten    --    113.2829               209.0609                27.7329

                     94                     95                     96
                      A                      A                      A
 Frequencies --   1226.4097              1238.1951              1241.6053
 Red. masses --     10.1980                 2.1979                12.2117
 Frc consts  --      9.0373                 1.9854                11.0916
 IR Inten    --    401.8377                77.1008               342.9943

                     97                     98                     99
                      A                      A                      A
 Frequencies --   1250.1030              1252.9089              1255.9530
 Red. masses --      2.5341                 2.9353                 6.8336
 Frc consts  --      2.3333                 2.7148                 6.3511
 IR Inten    --    317.6713                35.0184                94.0060

                    100                    101                    102
                      A                      A                      A
 Frequencies --   1260.2599              1267.0845              1269.4400
 Red. masses --      3.1543                 7.5339                 2.7343
 Frc consts  --      2.9517                 7.1266                 2.5961
 IR Inten    --    188.1955               354.7127                52.6825

                    103                    104                    105
                      A                      A                      A
 Frequencies --   1279.2393              1291.7694              1308.1366
 Red. masses --      3.1406                 1.9420                 1.7256
 Frc consts  --      3.0281                 1.9092                 1.7398
 IR Inten    --    112.0203                16.2976                 6.7625

                    106                    107                    108
                      A                      A                      A
 Frequencies --   1323.8678              1332.1484              1360.6005
 Red. masses --      1.5005                 3.8094                 1.2142
 Frc consts  --      1.5494                 3.9830                 1.3243
 IR Inten    --     10.0856               794.0163                18.4569

                    109                    110                    111
                      A                      A                      A
 Frequencies --   1369.0558              1373.6847              1388.7489
 Red. masses --      3.6479                 1.4698                 1.8733
 Frc consts  --      4.0284                 1.6341                 2.1287
 IR Inten    --     90.5632                 5.4415               115.7234

                    112                    113                    114
                      A                      A                      A
 Frequencies --   1394.6029              1396.8306              1412.2086
 Red. masses --      2.2278                 1.3951                 1.3859
 Frc consts  --      2.5528                 1.6038                 1.6285
 IR Inten    --    168.3275                12.5689                20.2428

                    115                    116                    117
                      A                      A                      A
 Frequencies --   1430.5425              1431.9567              1439.0265
 Red. masses --      4.7832                 1.6943                 1.4220
 Frc consts  --      5.7673                 2.0469                 1.7349
 IR Inten    --    124.0239                48.6192                12.6880

                    118                    119                    120
                      A                      A                      A
 Frequencies --   1459.1274              1461.5151              1473.6890
 Red. masses --      1.4520                 1.7222                 1.5860
 Frc consts  --      1.8214                 2.1674                 2.0294
 IR Inten    --     22.8732                25.6340                10.7714

                    121                    122                    123
                      A                      A                      A
 Frequencies --   1498.0595              1507.5407              1509.1609
 Red. masses --      1.0893                 1.2137                 1.1583
 Frc consts  --      1.4403                 1.6252                 1.5543
 IR Inten    --      2.5759                 2.2760                 7.3984

                    124                    125                    126
                      A                      A                      A
 Frequencies --   1510.3620              1518.4006              1519.2802
 Red. masses --      1.1645                 1.0491                 1.0684
 Frc consts  --      1.5651                 1.4250                 1.4530
 IR Inten    --      4.5297                 4.4140                12.0466

                    127                    128                    129
                      A                      A                      A
 Frequencies --   1520.4770              1527.5779              1529.8747
 Red. masses --      1.0656                 1.1176                 1.1106
 Frc consts  --      1.4514                 1.5366                 1.5315
 IR Inten    --      8.3123                 1.9973                 7.0699

                    130                    131                    132
                      A                      A                      A
 Frequencies --   1535.7673              1538.4546              1542.5276
 Red. masses --      4.5316                 1.0493                 1.0506
 Frc consts  --      6.2973                 1.4632                 1.4729
 IR Inten    --      0.9492                13.8802                11.4424

                    133                    134                    135
                      A                      A                      A
 Frequencies --   1543.3081              1545.2334              1549.4831
 Red. masses --      1.0518                 1.0701                 4.8093
 Frc consts  --      1.4760                 1.5054                 6.8030
 IR Inten    --      8.0925                10.1299                 0.2069

                    136                    137                    138
                      A                      A                      A
 Frequencies --   1731.3079              1748.0634              3077.7054
 Red. masses --      7.1867                 6.9198                 1.0812
 Frc consts  --     12.6920                12.4582                 6.0341
 IR Inten    --     27.1504                30.2668                21.9839

                    139                    140                    141
                      A                      A                      A
 Frequencies --   3083.1402              3086.4185              3090.0698
 Red. masses --      1.0373                 1.0365                 1.0329
 Frc consts  --      5.8095                 5.8176                 5.8111
 IR Inten    --     60.2866                53.6370                56.5190

                    142                    143                    144
                      A                      A                      A
 Frequencies --   3090.8338              3108.6557              3113.5300
 Red. masses --      1.0331                 1.0854                 1.0777
 Frc consts  --      5.8149                 6.1797                 6.1555
 IR Inten    --     39.2612                15.2383                 4.7741

                    145                    146                    147
                      A                      A                      A
 Frequencies --   3122.7243              3130.1957              3158.5621
 Red. masses --      1.0710                 1.0851                 1.1072
 Frc consts  --      6.1535                 6.2644                 6.5083
 IR Inten    --     29.0128                52.3432                46.5321

                    148                    149                    150
                      A                      A                      A
 Frequencies --   3172.1484              3175.1939              3175.5431
 Red. masses --      1.1051                 1.1028                 1.1045
 Frc consts  --      6.5517                 6.5509                 6.5620
 IR Inten    --     34.7977                53.7098                18.5899

                    151                    152                    153
                      A                      A                      A
 Frequencies --   3202.2412              3205.8949              3212.4263
 Red. masses --      1.1025                 1.0891                 1.1056
 Frc consts  --      6.6611                 6.5948                 6.7222
 IR Inten    --     13.5745                 8.3737                34.4088

                    154                    155                    156
                      A                      A                      A
 Frequencies --   3215.7620              3217.6072              3225.2170
 Red. masses --      1.1055                 1.1063                 1.1028
 Frc consts  --      6.7355                 6.7485                 6.7588
 IR Inten    --     28.0951                26.3203                20.5997

                    157                    158                    159
                      A                      A                      A
 Frequencies --   3283.0830              3287.4035              3295.8000
 Red. masses --      1.0940                 1.0936                 1.0939
 Frc consts  --      6.9479                 6.9636                 7.0007
 IR Inten    --      8.6126                 2.9692                 9.3967

 - Thermochemistry -
 -------------------
 Temperature   298.150 Kelvin.  Pressure   1.00000 Atm.
 Atom     1 has atomic number  6 and mass  12.00000

 Molecular mass:   512.09396 amu.
 Principal axes and moments of inertia in atomic units:
                           1         2         3
     Eigenvalues --  ******************************
           X            0.99995   0.00635   0.00754
           Y           -0.00771   0.98027   0.19749
           Z           -0.00614  -0.19754   0.98028
 This molecule is an asymmetric top.
 Rotational symmetry number  1.
 Warning -- assumption of classical behavior for rotation
           may cause significant error
 Rotational temperatures (Kelvin)      0.00732     0.00412     0.00406
 Rotational constants (GHZ):           0.15254     0.08590     0.08470
 Zero-point vibrational energy    1107382.7 (Joules/Mol)
                                  264.67081 (Kcal/Mol)
 Warning -- explicit consideration of  54 degrees of freedom as
           vibrations may cause significant error
 Vibrational temperatures:     22.65    27.82    29.14    33.35    54.29
          (Kelvin)             65.20    80.37    87.07    93.40   102.97
                              107.77   123.79   134.78   146.33   150.49
                              166.06   178.64   224.01   233.81   243.81
                              253.10   264.36   278.05   290.90   305.16
                              332.66   342.83   358.47   376.81   387.87
                              411.77   420.31   428.61   433.61   457.95
                              477.63   503.40   517.19   524.69   546.52
                              603.21   619.48   633.80   664.29   688.52
                              697.89   723.71   728.59   767.84   779.10
                              798.82   831.01   835.37   861.75   893.94
                              901.25   952.35   991.37   995.74  1016.67
                             1041.74  1055.21  1092.60  1229.78  1259.06
                             1273.41  1290.54  1347.56  1379.43  1394.43
                             1416.21  1426.41  1465.57  1472.56  1486.92
                             1530.57  1542.81  1563.60  1624.25  1655.48
                             1664.17  1668.30  1678.57  1687.59  1699.37
                             1722.15  1725.87  1728.19  1733.34  1737.53
                             1738.50  1745.39  1754.40  1764.53  1781.49
                             1786.39  1798.62  1802.66  1807.04  1813.23
                             1823.05  1826.44  1840.54  1858.57  1882.12
                             1904.75  1916.66  1957.60  1969.77  1976.43
                             1998.10  2006.52  2009.73  2031.85  2058.23
                             2060.27  2070.44  2099.36  2102.79  2120.31
                             2155.37  2169.01  2171.35  2173.07  2184.64
                             2185.91  2187.63  2197.84  2201.15  2209.63
                             2213.49  2219.35  2220.48  2223.25  2229.36
                             2490.97  2515.07  4428.13  4435.95  4440.67
                             4445.92  4447.02  4472.66  4479.68  4492.90
                             4503.65  4544.47  4564.01  4568.40  4568.90
                             4607.31  4612.57  4621.96  4626.76  4629.42
                             4640.37  4723.62  4729.84  4741.92

 Zero-point correction=                           0.421780 (Hartree/Particle)
 Thermal correction to Energy=                    0.454722
 Thermal correction to Enthalpy=                  0.455666
 Thermal correction to Gibbs Free Energy=         0.353224
 Sum of electronic and zero-point Energies=          -2296.501962
 Sum of electronic and thermal Energies=             -2296.469020
 Sum of electronic and thermal Enthalpies=           -2296.468075
 Sum of electronic and thermal Free Energies=        -2296.570518

                     E (Thermal)             CV                S
                      KCal/Mol        Cal/Mol-Kelvin    Cal/Mol-Kelvin
 Total                  285.342            118.281            215.609
 Electronic               0.000              0.000              0.000
 Translational            0.889              2.981             44.587
 Rotational               0.889              2.981             36.914
 Vibrational            283.565            112.320            134.109
 Vibration     1          0.593              1.986              7.109
 Vibration     2          0.593              1.986              6.701
 Vibration     3          0.593              1.986              6.609
 Vibration     4          0.593              1.985              6.341
 Vibration     5          0.594              1.982              5.375
 Vibration     6          0.595              1.979              5.012
 Vibration     7          0.596              1.975              4.598
 Vibration     8          0.597              1.973              4.440
 Vibration     9          0.597              1.971              4.302
 Vibration    10          0.598              1.968              4.110
 Vibration    11          0.599              1.966              4.020
 Vibration    12          0.601              1.959              3.748
 Vibration    13          0.603              1.954              3.582
 Vibration    14          0.604              1.948              3.421
 Vibration    15          0.605              1.946              3.367
 Vibration    16          0.608              1.937              3.176
 Vibration    17          0.610              1.929              3.035
 Vibration    18          0.620              1.896              2.601
 Vibration    19          0.623              1.888              2.520
 Vibration    20          0.625              1.880              2.441
 Vibration    21          0.628              1.872              2.371
 Vibration    22          0.631              1.862              2.290
 Vibration    23          0.635              1.849              2.196
 Vibration    24          0.639              1.837              2.113
 Vibration    25          0.643              1.822              2.026
 Vibration    26          0.653              1.793              1.870
 Vibration    27          0.656              1.782              1.816
 Vibration    28          0.662              1.764              1.737
 Vibration    29          0.669              1.743              1.649
 Vibration    30          0.674              1.729              1.599
 Vibration    31          0.684              1.699              1.496
 Vibration    32          0.688              1.688              1.462
 Vibration    33          0.691              1.678              1.429
 Vibration    34          0.693              1.671              1.409
 Vibration    35          0.705              1.639              1.319
 Vibration    36          0.714              1.612              1.250
 Vibration    37          0.727              1.575              1.167
 Vibration    38          0.734              1.556              1.124
 Vibration    39          0.738              1.545              1.102
 Vibration    40          0.750              1.513              1.040
 Vibration    41          0.782              1.428              0.895
 Vibration    42          0.792              1.404              0.857
 Vibration    43          0.800              1.382              0.825
 Vibration    44          0.819              1.335              0.761
 Vibration    45          0.835              1.298              0.714
 Vibration    46          0.841              1.283              0.697
 Vibration    47          0.858              1.243              0.651
 Vibration    48          0.862              1.236              0.642
 Vibration    49          0.889              1.176              0.579
 Vibration    50          0.897              1.158              0.562
 Vibration    51          0.911              1.128              0.533
 Vibration    52          0.934              1.080              0.490
 Vibration    53          0.937              1.073              0.484
 Vibration    54          0.957              1.034              0.451

 Optimization completed.
    -- Stationary point found.
 Normal termination of Gaussian 16 at Sat Jun 15 09:04:26 2019.
