 Gaussian 16, Revision A.03,
 Gaussian 16:  AS64L-G16RevA.03 25-Dec-2016

 ----------------------------------------------------------------------
 #p opt freq=noraman pop=none 6-31g* scrf=(pcm,solvent=tetrahydrofuran)
  b971 extrabasis
 ----------------------------------------------------------------------

 -----
 title
 -----
 Symbolic Z-matrix:
 Charge =  0 Multiplicity = 1

 SCF Done:  E(RB971) =  -2297.52278314     A.U. after   13 cycles
 SCF Done:  E(RB971) =  -2297.52278300     A.U. after    6 cycles
 SCF Done:  E(RB971) =  -2297.52278311     A.U. after    6 cycles
 Optimization completed.
    -- Stationary point found.
 Normal termination of Gaussian 16 at Sat Jun 15 07:12:28 2019.

 -----------------------------------------------------------------
 #P Geom=AllCheck Guess=TCheck SCRF=Check GenChk RB971/ChkBas Freq
 -----------------------------------------------------------------

 Structure from the checkpoint file:  "/scratch/users/ekwan/clay_new-glu_gluC6-bisCF3-sm-b971-custom-pcm_thf/Gau-13892.chk"
 -----
 title
 -----
 Charge =  0 Multiplicity = 1

                         Standard orientation:
 ---------------------------------------------------------------------
 Center     Atomic      Atomic             Coordinates (Angstroms)
 Number     Number       Type             X           Y           Z
 ---------------------------------------------------------------------
      1          6           0        3.519623   -0.181589    0.749898
      2          6           0        3.375686   -0.473950   -0.754061
      3          6           0        1.896404   -0.396990   -1.201724
      4          6           0        1.317158    1.080925    0.596551
      5          6           0        2.768915    1.111574    1.109192
      6          1           0        1.796751   -0.461827   -2.287579
      7          1           0        3.894639    0.331294   -1.303065
      8          1           0        3.085831   -1.010993    1.330074
      9          1           0        0.764869    0.299506    1.141375
     10          1           0        3.285264    1.962559    0.642008
     11          8           0        1.276413    0.782856   -0.818181
     12          8           0        1.229219   -1.563560   -0.617865
     13          8           0        3.965016   -1.720402   -1.042024
     14          8           0        4.883427    0.001285    1.093044
     15          8           0        2.714888    1.268353    2.518414
     16          6           0        0.583029    2.407080    0.826352
     17          1           0        0.464032    2.521809    1.909612
     18          1           0       -0.417207    2.350319    0.369648
     19          8           0        1.274703    3.557513    0.378573
     20         16           0       -0.077159   -2.194785   -1.358502
     21          8           0       -0.170091   -3.552110   -0.836256
     22          8           0        0.025370   -1.943006   -2.795485
     23          6           0       -1.454163   -1.239799   -0.708208
     24          6           0       -2.105025   -1.693078    0.441267
     25          6           0       -1.836683   -0.067516   -1.364712
     26          6           0       -3.173736   -0.942227    0.942202
     27          1           0       -1.789385   -2.611188    0.927551
     28          6           0       -2.900106    0.672180   -0.839807
     29          1           0       -1.322810    0.258292   -2.263371
     30          6           0       -3.570950    0.239950    0.309586
     31          1           0       -4.398919    0.819016    0.707315
     32          6           0        4.345193   -1.895560   -2.402659
     33          1           0        3.474787   -1.957455   -3.072295
     34          1           0        5.000297   -1.077400   -2.738630
     35          1           0        4.893042   -2.840694   -2.452091
     36          6           0        5.516777   -1.146525    1.645280
     37          1           0        6.541489   -0.847462    1.888841
     38          1           0        5.011539   -1.473136    2.567654
     39          1           0        5.538537   -1.979617    0.931792
     40          6           0        3.577080    2.279636    3.027032
     41          1           0        3.428040    2.299191    4.111563
     42          1           0        4.628899    2.054259    2.807380
     43          1           0        3.320660    3.265702    2.610651
     44          6           0        1.097656    3.860295   -0.999954
     45          1           0        1.504419    4.865213   -1.154037
     46          1           0        0.029771    3.859336   -1.269856
     47          1           0        1.625452    3.151137   -1.651126
     48          6           0       -3.943004   -1.447578    2.145411
     49          9           0       -3.154611   -2.161417    2.971074
     50          9           0       -4.961439   -2.249225    1.771587
     51          9           0       -4.473180   -0.432580    2.854350
     52          6           0       -3.283273    1.985970   -1.486914
     53          9           0       -2.582783    3.014402   -0.949992
     54          9           0       -4.587300    2.265646   -1.313364
     55          9           0       -3.029630    1.982562   -2.807824
 ---------------------------------------------------------------------

 SCF Done:  E(RB971) =  -2297.52278311     A.U. after    1 cycles

 Isotropic polarizability for W=    0.000000      285.00 Bohr**3.
 End of Minotr F.D. properties file   721 does not exist.

                      1                      2                      3
                      A                      A                      A
 Frequencies --     12.4559                19.4311                21.0733
 Red. masses --      9.1845                14.7590                 7.0604
 Frc consts  --      0.0008                 0.0033                 0.0018
 IR Inten    --      0.1264                 0.0723                 0.3529

                      4                      5                      6
                      A                      A                      A
 Frequencies --     26.3275                35.8327                38.8581
 Red. masses --     11.4470                 3.4467                 5.0852
 Frc consts  --      0.0047                 0.0026                 0.0045
 IR Inten    --      0.0540                 2.2147                 0.3438

                      7                      8                      9
                      A                      A                      A
 Frequencies --     51.2565                54.0198                56.0566
 Red. masses --      4.5698                 6.7811                 3.4071
 Frc consts  --      0.0071                 0.0117                 0.0063
 IR Inten    --      1.5181                 0.9471                 1.3545

                     10                     11                     12
                      A                      A                      A
 Frequencies --     64.7591                72.3242                82.8132
 Red. masses --      3.1815                 3.8727                 3.4045
 Frc consts  --      0.0079                 0.0119                 0.0138
 IR Inten    --      7.5116                 0.3941                 0.7744

                     13                     14                     15
                      A                      A                      A
 Frequencies --     85.1544                99.6650               101.5183
 Red. masses --      2.5128                12.2497                 6.9760
 Frc consts  --      0.0107                 0.0717                 0.0424
 IR Inten    --      4.7696                 2.7742                 4.3598

                     16                     17                     18
                      A                      A                      A
 Frequencies --    112.1673               117.3631               151.2967
 Red. masses --      3.3264                 4.3836                 7.4754
 Frc consts  --      0.0247                 0.0356                 0.1008
 IR Inten    --      2.2319                 2.8309                 0.1595

                     19                     20                     21
                      A                      A                      A
 Frequencies --    155.7671               161.7543               169.0015
 Red. masses --      1.4207                 2.3362                 3.5535
 Frc consts  --      0.0203                 0.0360                 0.0598
 IR Inten    --      0.3166                 0.6901                 1.7485

                     22                     23                     24
                      A                      A                      A
 Frequencies --    176.4055               186.6709               191.5593
 Red. masses --      1.5277                 3.5358                 1.8066
 Frc consts  --      0.0280                 0.0726                 0.0391
 IR Inten    --      2.3851                 3.8263                 2.3833

                     25                     26                     27
                      A                      A                      A
 Frequencies --    201.5962               226.4563               235.5409
 Red. masses --      1.7158                 2.5772                12.2132
 Frc consts  --      0.0411                 0.0779                 0.3992
 IR Inten    --      1.2534                 9.3149                 0.1024

                     28                     29                     30
                      A                      A                      A
 Frequencies --    243.8207               255.4796               256.7518
 Red. masses --      4.6537                 4.3911                 3.7576
 Frc consts  --      0.1630                 0.1689                 0.1459
 IR Inten    --      4.1205                14.2268                10.0000

                     31                     32                     33
                      A                      A                      A
 Frequencies --    280.0242               286.0593               289.2318
 Red. masses --     11.2466                 5.4322                 8.4835
 Frc consts  --      0.5196                 0.2619                 0.4181
 IR Inten    --      2.9224                12.3867                 3.1642

                     34                     35                     36
                      A                      A                      A
 Frequencies --    291.5282               312.6045               321.4386
 Red. masses --      7.9203                 5.4637                 4.1980
 Frc consts  --      0.3966                 0.3146                 0.2556
 IR Inten    --      8.7980                 0.2595                 5.1608

                     37                     38                     39
                      A                      A                      A
 Frequencies --    341.4457               350.3028               355.3077
 Red. masses --      7.0836                 7.2775                 4.3269
 Frc consts  --      0.4866                 0.5262                 0.3218
 IR Inten    --      0.6801                 6.0393                 4.8828

                     40                     41                     42
                      A                      A                      A
 Frequencies --    364.1870               409.4440               416.3240
 Red. masses --      9.6076                10.1923                 8.8499
 Frc consts  --      0.7508                 1.0067                 0.9038
 IR Inten    --     16.1546                15.4617                 7.0669

                     43                     44                     45
                      A                      A                      A
 Frequencies --    442.2687               448.3337               460.0919
 Red. masses --      2.3026                 4.8307                 8.6294
 Frc consts  --      0.2654                 0.5721                 1.0763
 IR Inten    --      7.1934                14.8346                18.2446

                     46                     47                     48
                      A                      A                      A
 Frequencies --    466.6354               490.0686               497.9884
 Red. masses --      4.0550                 8.0734                11.9214
 Frc consts  --      0.5202                 1.1424                 1.7419
 IR Inten    --      9.1984                20.6185                 0.8024

                     49                     50                     51
                      A                      A                      A
 Frequencies --    520.0872               525.5659               536.3439
 Red. masses --      4.8348                10.6531                 4.6857
 Frc consts  --      0.7705                 1.7337                 0.7942
 IR Inten    --     38.7030                26.3295                16.2585

                     52                     53                     54
                      A                      A                      A
 Frequencies --    564.4096               566.0133               574.7253
 Red. masses --      3.8921                13.0923                11.3131
 Frc consts  --      0.7305                 2.4713                 2.2017
 IR Inten    --     42.3365                46.5658               240.9785

                     55                     56                     57
                      A                      A                      A
 Frequencies --    601.8171               609.9517               627.3631
 Red. masses --      6.7870                 8.1673                 5.7294
 Frc consts  --      1.4483                 1.7903                 1.3286
 IR Inten    --     39.3414                 2.7879                12.9954

                     58                     59                     60
                      A                      A                      A
 Frequencies --    670.2237               673.4922               678.3969
 Red. masses --      7.7580                 6.4361                12.8369
 Frc consts  --      2.0532                 1.7201                 3.4808
 IR Inten    --      1.7837                58.0057                57.2675

                     61                     62                     63
                      A                      A                      A
 Frequencies --    704.7278               713.9418               726.4098
 Red. masses --      2.6197                 8.3218                 6.0081
 Frc consts  --      0.7665                 2.4992                 1.8679
 IR Inten    --     27.4490                13.5845                78.7860

                     64                     65                     66
                      A                      A                      A
 Frequencies --    793.0182               825.6332               832.9383
 Red. masses --      9.4505                 4.9466                 6.4837
 Frc consts  --      3.5016                 1.9867                 2.6503
 IR Inten    --    540.0396               123.2831                45.6079

                     67                     68                     69
                      A                      A                      A
 Frequencies --    855.6517               870.1720               911.7301
 Red. masses --     12.0449                 4.0265                 1.5591
 Frc consts  --      5.1958                 1.7963                 0.7636
 IR Inten    --     23.4206                43.2794                69.8747

                     70                     71                     72
                      A                      A                      A
 Frequencies --    923.3771               940.6867               954.4436
 Red. masses --      2.8536                 1.3933                 1.3616
 Frc consts  --      1.4335                 0.7264                 0.7308
 IR Inten    --     23.3322                 3.4421                 6.2399

                     73                     74                     75
                      A                      A                      A
 Frequencies --    963.6699               974.5610               999.1887
 Red. masses --      4.9157                 4.2989                 4.1113
 Frc consts  --      2.6896                 2.4056                 2.4184
 IR Inten    --      7.6138                42.9336                47.5463

                     76                     77                     78
                      A                      A                      A
 Frequencies --   1008.1141              1019.5615              1038.9901
 Red. masses --      6.2994                 4.4529                 3.5229
 Frc consts  --      3.7720                 2.7272                 2.2406
 IR Inten    --      1.0773                15.1139               128.8322

                     79                     80                     81
                      A                      A                      A
 Frequencies --   1078.4485              1107.3001              1115.2419
 Red. masses --      3.2338                12.1138                 2.9992
 Frc consts  --      2.2160                 8.7511                 2.1979
 IR Inten    --     16.9821                80.8734               108.7153

                     82                     83                     84
                      A                      A                      A
 Frequencies --   1121.0305              1124.0317              1130.5333
 Red. masses --      2.7158                 2.6516                 3.3537
 Frc consts  --      2.0109                 1.9739                 2.5254
 IR Inten    --     12.8655               108.0581               228.4839

                     85                     86                     87
                      A                      A                      A
 Frequencies --   1132.0508              1147.3929              1150.2669
 Red. masses --      2.0471                 4.4528                 4.1752
 Frc consts  --      1.5457                 3.4539                 3.2548
 IR Inten    --     39.4921                33.6915               502.6361

                     88                     89                     90
                      A                      A                      A
 Frequencies --   1153.3367              1166.2296              1172.1415
 Red. masses --      4.1742                 9.8008                 3.6030
 Frc consts  --      3.2714                 7.8538                 2.9166
 IR Inten    --    272.5975               416.6031                71.5128

                     91                     92                     93
                      A                      A                      A
 Frequencies --   1180.3598              1182.4708              1183.6879
 Red. masses --      1.4960                 3.3389                 1.3039
 Frc consts  --      1.2281                 2.7507                 1.0764
 IR Inten    --     24.8514               137.6192                 6.3683

                     94                     95                     96
                      A                      A                      A
 Frequencies --   1184.0206              1186.4309              1188.6492
 Red. masses --     10.4000                 1.4970                 1.8610
 Frc consts  --      8.5902                 1.2415                 1.5492
 IR Inten    --    345.6501                 9.4661                64.7496

                     97                     98                     99
                      A                      A                      A
 Frequencies --   1190.4849              1211.9777              1213.2048
 Red. masses --      1.5214                 7.7070                 1.3988
 Frc consts  --      1.2704                 6.6700                 1.2130
 IR Inten    --     55.5181               168.1291                53.8762

                    100                    101                    102
                      A                      A                      A
 Frequencies --   1218.6340              1222.2754              1230.6075
 Red. masses --      6.6494                 1.4856                 1.7036
 Frc consts  --      5.8181                 1.3076                 1.5200
 IR Inten    --    280.2821                26.3064                12.7786

                    103                    104                    105
                      A                      A                      A
 Frequencies --   1237.1266              1262.8982              1282.0535
 Red. masses --      1.6204                 1.7538                 3.4842
 Frc consts  --      1.4612                 1.6481                 3.3742
 IR Inten    --     30.6490                 7.7096               786.3331

                    106                    107                    108
                      A                      A                      A
 Frequencies --   1301.5980              1308.9942              1327.1672
 Red. masses --      1.4493                 1.4381                13.1199
 Frc consts  --      1.4467                 1.4518                13.6155
 IR Inten    --      2.0163                 4.2310               335.2949

                    109                    110                    111
                      A                      A                      A
 Frequencies --   1334.2974              1342.9830              1364.4168
 Red. masses --      1.4377                 1.1792                 4.9691
 Frc consts  --      1.5081                 1.2531                 5.4503
 IR Inten    --      3.1256                13.0143               222.5509

                    112                    113                    114
                      A                      A                      A
 Frequencies --   1368.6703              1369.4521              1370.8224
 Red. masses --      1.2638                 2.7370                 1.4797
 Frc consts  --      1.3949                 3.0243                 1.6383
 IR Inten    --     16.6377                 4.6958                 4.3004

                    115                    116                    117
                      A                      A                      A
 Frequencies --   1387.7714              1393.0211              1412.0268
 Red. masses --      1.2482                 1.4494                 1.3014
 Frc consts  --      1.4164                 1.6571                 1.5288
 IR Inten    --      0.5956                14.7017                 4.3858

                    118                    119                    120
                      A                      A                      A
 Frequencies --   1419.9444              1429.6789              1438.4939
 Red. masses --      1.3641                 1.2899                 1.3222
 Frc consts  --      1.6205                 1.5534                 1.6120
 IR Inten    --     35.5699                11.8696                13.3091

                    121                    122                    123
                      A                      A                      A
 Frequencies --   1480.3252              1488.2355              1488.6033
 Red. masses --      3.6018                 1.2476                 2.7740
 Frc consts  --      4.6503                 1.6280                 3.6217
 IR Inten    --      7.0362                 1.9413                 2.0856

                    124                    125                    126
                      A                      A                      A
 Frequencies --   1492.4104              1494.6192              1498.0095
 Red. masses --      1.1604                 1.1604                 1.1266
 Frc consts  --      1.5227                 1.5273                 1.4896
 IR Inten    --      0.0603                 1.6212                 4.7650

                    127                    128                    129
                      A                      A                      A
 Frequencies --   1506.4204              1507.7464              1508.8650
 Red. masses --      1.0516                 1.0576                 1.0622
 Frc consts  --      1.4060                 1.4165                 1.4248
 IR Inten    --      2.9196                 6.2285                 8.2874

                    130                    131                    132
                      A                      A                      A
 Frequencies --   1513.7372              1516.0859              1525.3391
 Red. masses --      1.1226                 1.0796                 1.0514
 Frc consts  --      1.5156                 1.4621                 1.4412
 IR Inten    --      1.4123                 6.0170                12.1931

                    133                    134                    135
                      A                      A                      A
 Frequencies --   1532.4086              1533.2816              1535.3737
 Red. masses --      1.0504                 1.0493                 1.0566
 Frc consts  --      1.4533                 1.4534                 1.4675
 IR Inten    --      9.0926                 7.0178                 9.7808

                    136                    137                    138
                      A                      A                      A
 Frequencies --   1638.9709              1661.2238              3000.3679
 Red. masses --      6.0473                 5.8221                 1.0816
 Frc consts  --      9.5710                 9.4665                 5.7369
 IR Inten    --     14.8329                19.8566                24.7970

                    139                    140                    141
                      A                      A                      A
 Frequencies --   3015.2746              3016.8446              3017.7026
 Red. masses --      1.0355                 1.0398                 1.0367
 Frc consts  --      5.5469                 5.5755                 5.5624
 IR Inten    --     85.6581                62.7624                53.5581

                    142                    143                    144
                      A                      A                      A
 Frequencies --   3018.8249              3032.2018              3033.7047
 Red. masses --      1.0356                 1.0768                 1.0830
 Frc consts  --      5.5607                 5.8332                 5.8726
 IR Inten    --     63.8197                 8.5834                18.7513

                    145                    146                    147
                      A                      A                      A
 Frequencies --   3043.9234              3057.0663              3075.5197
 Red. masses --      1.0698                 1.0847                 1.1061
 Frc consts  --      5.8402                 5.9726                 6.1641
 IR Inten    --     48.5097                63.3296                62.9386

                    148                    149                    150
                      A                      A                      A
 Frequencies --   3088.8987              3090.7832              3097.0399
 Red. masses --      1.0993                 1.1022                 1.0947
 Frc consts  --      6.1799                 6.2039                 6.1862
 IR Inten    --     46.2893                55.0948                50.9928

                    151                    152                    153
                      A                      A                      A
 Frequencies --   3117.6830              3134.8704              3138.0801
 Red. masses --      1.0996                 1.1031                 1.1028
 Frc consts  --      6.2973                 6.3870                 6.3985
 IR Inten    --     20.5102                47.2589                38.9894

                    154                    155                    156
                      A                      A                      A
 Frequencies --   3140.0423              3143.9049              3150.8181
 Red. masses --      1.1045                 1.0881                 1.0994
 Frc consts  --      6.4166                 6.3368                 6.4308
 IR Inten    --     36.7499                13.0775                27.5515

                    157                    158                    159
                      A                      A                      A
 Frequencies --   3237.0714              3240.3855              3245.5883
 Red. masses --      1.0919                 1.0919                 1.0918
 Frc consts  --      6.7411                 6.7547                 6.7758
 IR Inten    --      1.3996                 6.8318                 5.0641

 - Thermochemistry -
 -------------------
 Temperature   298.150 Kelvin.  Pressure   1.00000 Atm.
 Atom     1 has atomic number  6 and mass  12.00000

 Molecular mass:   512.09396 amu.
 Principal axes and moments of inertia in atomic units:
                           1         2         3
     Eigenvalues --  ******************************
           X            0.99994  -0.00053   0.01058
           Y           -0.00040   0.99611   0.08808
           Z           -0.01059  -0.08808   0.99606
 This molecule is an asymmetric top.
 Rotational symmetry number  1.
 Warning -- assumption of classical behavior for rotation
           may cause significant error
 Rotational temperatures (Kelvin)      0.00719     0.00386     0.00358
 Rotational constants (GHZ):           0.14978     0.08044     0.07451
 Zero-point vibrational energy    1077190.2 (Joules/Mol)
                                  257.45464 (Kcal/Mol)
 Warning -- explicit consideration of  56 degrees of freedom as
           vibrations may cause significant error
 Vibrational temperatures:     17.92    27.96    30.32    37.88    51.56
          (Kelvin)             55.91    73.75    77.72    80.65    93.17
                              104.06   119.15   122.52   143.40   146.06
                              161.38   168.86   217.68   224.11   232.73
                              243.16   253.81   268.58   275.61   290.05
                              325.82   338.89   350.80   367.58   369.41
                              402.89   411.58   416.14   419.44   449.77
                              462.48   491.26   504.01   511.21   523.98
                              589.10   599.00   636.33   645.05   661.97
                              671.38   705.10   716.49   748.29   756.17
                              771.68   812.06   814.37   826.90   865.88
                              877.58   902.64   964.30   969.01   976.06
                             1013.95  1027.20  1045.14  1140.98  1187.90
                             1198.41  1231.09  1251.98  1311.78  1328.53
                             1353.44  1373.23  1386.51  1402.18  1437.61
                             1450.45  1466.92  1494.87  1551.65  1593.16
                             1604.58  1612.91  1617.23  1626.59  1628.77
                             1650.84  1654.98  1659.39  1677.94  1686.45
                             1698.27  1701.31  1703.06  1703.54  1707.01
                             1710.20  1712.84  1743.77  1745.53  1753.34
                             1758.58  1770.57  1779.95  1817.03  1844.59
                             1872.71  1883.35  1909.50  1919.76  1932.25
                             1963.09  1969.21  1970.34  1972.31  1996.69
                             2004.25  2031.59  2042.98  2056.99  2069.67
                             2129.86  2141.24  2141.77  2147.25  2150.42
                             2155.30  2167.40  2169.31  2170.92  2177.93
                             2181.31  2194.62  2204.79  2206.05  2209.06
                             2358.11  2390.13  4316.86  4338.31  4340.57
                             4341.80  4343.42  4362.66  4364.82  4379.53
                             4398.44  4424.99  4444.24  4446.95  4455.95
                             4485.65  4510.38  4515.00  4517.82  4523.38
                             4533.32  4657.42  4662.19  4669.68

 Zero-point correction=                           0.410280 (Hartree/Particle)
 Thermal correction to Energy=                    0.444060
 Thermal correction to Enthalpy=                  0.445004
 Thermal correction to Gibbs Free Energy=         0.340250
 Sum of electronic and zero-point Energies=          -2297.112503
 Sum of electronic and thermal Energies=             -2297.078723
 Sum of electronic and thermal Enthalpies=           -2297.077779
 Sum of electronic and thermal Free Energies=        -2297.182533

                     E (Thermal)             CV                S
                      KCal/Mol        Cal/Mol-Kelvin    Cal/Mol-Kelvin
 Total                  278.652            121.402            220.474
 Electronic               0.000              0.000              0.000
 Translational            0.889              2.981             44.587
 Rotational               0.889              2.981             37.124
 Vibrational            276.874            115.441            138.764
 Vibration     1          0.593              1.987              7.575
 Vibration     2          0.593              1.986              6.691
 Vibration     3          0.593              1.985              6.530
 Vibration     4          0.593              1.985              6.089
 Vibration     5          0.594              1.982              5.477
 Vibration     6          0.594              1.981              5.316
 Vibration     7          0.596              1.977              4.768
 Vibration     8          0.596              1.976              4.665
 Vibration     9          0.596              1.975              4.591
 Vibration    10          0.597              1.971              4.307
 Vibration    11          0.598              1.967              4.089
 Vibration    12          0.600              1.961              3.823
 Vibration    13          0.601              1.959              3.768
 Vibration    14          0.604              1.949              3.461
 Vibration    15          0.604              1.948              3.425
 Vibration    16          0.607              1.939              3.231
 Vibration    17          0.608              1.935              3.143
 Vibration    18          0.619              1.901              2.656
 Vibration    19          0.620              1.896              2.601
 Vibration    20          0.622              1.889              2.529
 Vibration    21          0.625              1.881              2.447
 Vibration    22          0.628              1.871              2.366
 Vibration    23          0.632              1.858              2.261
 Vibration    24          0.634              1.852              2.213
 Vibration    25          0.638              1.838              2.118
 Vibration    26          0.650              1.801              1.907
 Vibration    27          0.655              1.786              1.836
 Vibration    28          0.659              1.773              1.775
 Vibration    29          0.666              1.754              1.692
 Vibration    30          0.666              1.751              1.684
 Vibration    31          0.680              1.711              1.534
 Vibration    32          0.684              1.700              1.497
 Vibration    33          0.686              1.694              1.478
 Vibration    34          0.687              1.690              1.465
 Vibration    35          0.701              1.650              1.349
 Vibration    36          0.707              1.632              1.303
 Vibration    37          0.721              1.593              1.205
 Vibration    38          0.727              1.575              1.165
 Vibration    39          0.731              1.564              1.143
 Vibration    40          0.738              1.546              1.104
 Vibration    41          0.774              1.450              0.929
 Vibration    42          0.780              1.435              0.905
 Vibration    43          0.802              1.378              0.820
 Vibration    44          0.807              1.365              0.801
 Vibration    45          0.818              1.339              0.766
 Vibration    46          0.824              1.324              0.747
 Vibration    47          0.846              1.272              0.683
 Vibration    48          0.853              1.254              0.663
 Vibration    49          0.875              1.206              0.610
 Vibration    50          0.881              1.193              0.597
 Vibration    51          0.891              1.170              0.573
 Vibration    52          0.920              1.108              0.515
 Vibration    53          0.922              1.105              0.512
 Vibration    54          0.931              1.086              0.495
 Vibration    55          0.960              1.028              0.447
 Vibration    56          0.969              1.011              0.433

                           ! Non-Optimized Parameters !
 Normal termination of Gaussian 16 at Sat Jun 15 07:58:23 2019.
