 Gaussian 16, Revision A.03,
 Gaussian 16:  AS64L-G16RevA.03 25-Dec-2016

 ----------------------------------------------------------------------
 #p opt freq=noraman pop=none 6-31g* scrf=(pcm,solvent=tetrahydrofuran)
  mpw3pbe extrabasis
 ----------------------------------------------------------------------

 -----
 title
 -----
 Symbolic Z-matrix:
 Charge =  0 Multiplicity = 1

 SCF Done:  E(RmPW3PBE) =  -2296.80400255     A.U. after   13 cycles
 Optimization completed.
    -- Stationary point found.
 Normal termination of Gaussian 16 at Sat Jun 15 08:58:19 2019.

 --------------------------------------------------------------------
 #P Geom=AllCheck Guess=TCheck SCRF=Check GenChk RmPW3PBE/ChkBas Freq
 --------------------------------------------------------------------

 Structure from the checkpoint file:  "/scratch/users/ekwan/clay_new-glu_gluC6-bisCF3-sm-mpw3pbe-custom-pcm_thf/Gau-23143.chk"
 -----
 title
 -----
 Charge =  0 Multiplicity = 1

                         Standard orientation:
 ---------------------------------------------------------------------
 Center     Atomic      Atomic             Coordinates (Angstroms)
 Number     Number       Type             X           Y           Z
 ---------------------------------------------------------------------
      1          6           0        3.504304   -0.229360    0.731494
      2          6           0        3.355013   -0.477908   -0.769438
      3          6           0        1.886231   -0.361299   -1.206836
      4          6           0        1.351261    1.088817    0.611865
      5          6           0        2.794981    1.067297    1.119223
      6          1           0        1.780351   -0.406764   -2.292457
      7          1           0        3.889587    0.330027   -1.296973
      8          1           0        3.044661   -1.058994    1.289437
      9          1           0        0.779364    0.313452    1.143007
     10          1           0        3.332932    1.914045    0.670616
     11          8           0        1.297512    0.821871   -0.801840
     12          8           0        1.199775   -1.514667   -0.639919
     13          8           0        3.915714   -1.723693   -1.090470
     14          8           0        4.867098   -0.098978    1.080446
     15          8           0        2.747043    1.195149    2.526110
     16          6           0        0.662704    2.422567    0.870514
     17          1           0        0.550296    2.517865    1.955195
     18          1           0       -0.340094    2.405486    0.419055
     19          8           0        1.384529    3.555553    0.443377
     20         16           0       -0.099237   -2.125544   -1.398829
     21          8           0       -0.190648   -3.495409   -0.917869
     22          8           0        0.006024   -1.830158   -2.824686
     23          6           0       -1.467412   -1.200993   -0.728017
     24          6           0       -2.114018   -1.685620    0.404479
     25          6           0       -1.854630   -0.018798   -1.351223
     26          6           0       -3.181875   -0.956678    0.922680
     27          1           0       -1.794347   -2.614544    0.865232
     28          6           0       -2.917638    0.698716   -0.809684
     29          1           0       -1.343297    0.330984   -2.241433
     30          6           0       -3.583467    0.234769    0.323119
     31          1           0       -4.414269    0.798171    0.734883
     32          6           0        4.314586   -1.858713   -2.443864
     33          1           0        3.458457   -1.865753   -3.132082
     34          1           0        5.002482   -1.052505   -2.736138
     35          1           0        4.831592   -2.817712   -2.522121
     36          6           0        5.456344   -1.274193    1.608071
     37          1           0        6.491657   -1.020621    1.852572
     38          1           0        4.944197   -1.598105    2.526030
     39          1           0        5.444666   -2.094812    0.881979
     40          6           0        3.645393    2.155923    3.053232
     41          1           0        3.502965    2.155473    4.137543
     42          1           0        4.685986    1.897799    2.823730
     43          1           0        3.426285    3.160431    2.664163
     44          6           0        1.197298    3.899704   -0.917464
     45          1           0        1.642049    4.889358   -1.055493
     46          1           0        0.127254    3.951454   -1.168188
     47          1           0        1.681610    3.188330   -1.597006
     48          6           0       -3.943931   -1.493131    2.106453
     49          9           0       -3.155353   -2.227172    2.908033
     50          9           0       -4.960158   -2.282471    1.713590
     51          9           0       -4.471646   -0.501263    2.842737
     52          6           0       -3.305911    2.019084   -1.420279
     53          9           0       -2.602421    3.032262   -0.869626
     54          9           0       -4.605156    2.292992   -1.228713
     55          9           0       -3.066195    2.044227   -2.740179
 ---------------------------------------------------------------------

 SCF Done:  E(RmPW3PBE) =  -2296.80400255     A.U. after    1 cycles

 Isotropic polarizability for W=    0.000000      282.52 Bohr**3.
 End of Minotr F.D. properties file   721 does not exist.

                      1                      2                      3
                      A                      A                      A
 Frequencies --     13.1052                16.6867                21.1155
 Red. masses --      9.5674                 6.5357                16.1366
 Frc consts  --      0.0010                 0.0011                 0.0042
 IR Inten    --      0.0820                 0.3032                 0.0224

                      4                      5                      6
                      A                      A                      A
 Frequencies --     22.8675                30.0023                38.1487
 Red. masses --     11.3468                 3.4912                 5.5049
 Frc consts  --      0.0035                 0.0019                 0.0047
 IR Inten    --      0.0441                 2.0415                 0.3251

                      7                      8                      9
                      A                      A                      A
 Frequencies --     42.5097                52.6866                55.4932
 Red. masses --      5.0761                 5.8360                 3.2822
 Frc consts  --      0.0054                 0.0095                 0.0060
 IR Inten    --      1.3764                 0.8757                 1.4916

                     10                     11                     12
                      A                      A                      A
 Frequencies --     61.9065                71.0894                79.3115
 Red. masses --      3.0622                 3.9168                 3.3312
 Frc consts  --      0.0069                 0.0117                 0.0123
 IR Inten    --      8.2477                 0.5365                 0.5472

                     13                     14                     15
                      A                      A                      A
 Frequencies --     84.5978                98.8324               100.1470
 Red. masses --      2.5478                10.1638                 7.3184
 Frc consts  --      0.0107                 0.0585                 0.0432
 IR Inten    --      5.3083                 2.9595                 4.3185

                     16                     17                     18
                      A                      A                      A
 Frequencies --    107.2895               116.1544               149.3452
 Red. masses --      2.6428                 6.6099                 7.4147
 Frc consts  --      0.0179                 0.0525                 0.0974
 IR Inten    --      2.3989                 2.1429                 0.1608

                     19                     20                     21
                      A                      A                      A
 Frequencies --    152.9730               159.7457               166.9237
 Red. masses --      1.3818                 1.9249                 2.5557
 Frc consts  --      0.0191                 0.0289                 0.0420
 IR Inten    --      0.1578                 0.5954                 0.9873

                     22                     23                     24
                      A                      A                      A
 Frequencies --    175.7346               183.0116               189.1623
 Red. masses --      1.7727                 3.0324                 2.0029
 Frc consts  --      0.0323                 0.0598                 0.0422
 IR Inten    --      2.9286                 5.6484                 1.3831

                     25                     26                     27
                      A                      A                      A
 Frequencies --    194.5438               224.0811               234.3629
 Red. masses --      1.8114                 3.0995                12.0879
 Frc consts  --      0.0404                 0.0917                 0.3912
 IR Inten    --      0.2232                11.0600                 0.1132

                     28                     29                     30
                      A                      A                      A
 Frequencies --    243.5642               252.5986               257.9119
 Red. masses --      3.9836                 3.7350                 5.8835
 Frc consts  --      0.1392                 0.1404                 0.2306
 IR Inten    --      7.1458                 9.1609                11.8608

                     31                     32                     33
                      A                      A                      A
 Frequencies --    280.5505               285.5412               289.6664
 Red. masses --     10.9906                 4.9886                 8.9497
 Frc consts  --      0.5097                 0.2396                 0.4424
 IR Inten    --      2.9551                10.0065                 5.9792

                     34                     35                     36
                      A                      A                      A
 Frequencies --    292.2674               311.5378               322.3216
 Red. masses --      8.7256                 5.4596                 4.1487
 Frc consts  --      0.4391                 0.3122                 0.2539
 IR Inten    --      7.7993                 0.2320                 5.3324

                     37                     38                     39
                      A                      A                      A
 Frequencies --    342.9315               351.1354               355.6585
 Red. masses --      7.2956                 6.5063                 4.6957
 Frc consts  --      0.5055                 0.4726                 0.3500
 IR Inten    --      0.5109                 3.8293                 5.7599

                     40                     41                     42
                      A                      A                      A
 Frequencies --    365.2674               410.8270               418.1281
 Red. masses --      9.5769                10.0963                 8.7645
 Frc consts  --      0.7528                 1.0040                 0.9028
 IR Inten    --     15.2578                15.2254                 6.4470

                     43                     44                     45
                      A                      A                      A
 Frequencies --    439.4967               450.4320               460.9736
 Red. masses --      2.1446                 5.0778                 8.7676
 Frc consts  --      0.2441                 0.6070                 1.0977
 IR Inten    --      6.4131                13.7663                18.3743

                     46                     47                     48
                      A                      A                      A
 Frequencies --    469.4288               491.5475               498.9747
 Red. masses --      4.2696                 7.7174                11.8994
 Frc consts  --      0.5543                 1.0986                 1.7455
 IR Inten    --      9.1613                20.8823                 0.6869

                     49                     50                     51
                      A                      A                      A
 Frequencies --    521.3003               527.6567               538.3868
 Red. masses --      4.6467                11.1922                 4.8279
 Frc consts  --      0.7440                 1.8360                 0.8245
 IR Inten    --     34.8287                31.9342                13.3076

                     52                     53                     54
                      A                      A                      A
 Frequencies --    566.8416               568.4098               577.1425
 Red. masses --      3.8455                13.2560                11.3496
 Frc consts  --      0.7280                 2.5234                 2.2274
 IR Inten    --     42.3203                40.2942               248.2652

                     55                     56                     57
                      A                      A                      A
 Frequencies --    605.7490               612.9507               629.4327
 Red. masses --      6.7320                 8.0445                 5.7519
 Frc consts  --      1.4554                 1.7807                 1.3426
 IR Inten    --     38.9454                 4.1692                10.1931

                     58                     59                     60
                      A                      A                      A
 Frequencies --    674.6133               679.7525               681.5925
 Red. masses --      7.5639                10.5165                 6.7899
 Frc consts  --      2.0282                 2.8630                 1.8585
 IR Inten    --      1.3678                57.6318                44.2173

                     61                     62                     63
                      A                      A                      A
 Frequencies --    707.6114               718.2165               731.9365
 Red. masses --      2.5061                 8.7508                 5.7856
 Frc consts  --      0.7393                 2.6595                 1.8262
 IR Inten    --     30.1400                 8.7845                69.5647

                     64                     65                     66
                      A                      A                      A
 Frequencies --    811.7908               840.4993               844.7334
 Red. masses --      8.4464                 4.0573                 8.7591
 Frc consts  --      3.2795                 1.6887                 3.6826
 IR Inten    --    448.8507               154.2691               114.6733

                     67                     68                     69
                      A                      A                      A
 Frequencies --    863.9867               882.2494               914.2237
 Red. masses --     11.9703                 3.9509                 1.5903
 Frc consts  --      5.2646                 1.8119                 0.7831
 IR Inten    --     23.0293                55.6883                66.1166

                     70                     71                     72
                      A                      A                      A
 Frequencies --    934.3948               942.6095               957.5795
 Red. masses --      2.7520                 1.4117                 1.3682
 Frc consts  --      1.4157                 0.7390                 0.7392
 IR Inten    --     23.0182                 5.6529                 6.5377

                     73                     74                     75
                      A                      A                      A
 Frequencies --    978.2116               987.8173              1012.2569
 Red. masses --      4.7788                 4.1467                 5.9012
 Frc consts  --      2.6942                 2.3840                 3.5626
 IR Inten    --     12.4933                46.0639                13.4152

                     76                     77                     78
                      A                      A                      A
 Frequencies --   1016.7530              1034.9311              1049.2622
 Red. masses --      4.1501                 4.1078                 3.5804
 Frc consts  --      2.5278                 2.5923                 2.3225
 IR Inten    --     38.6909                11.6304               127.4402

                     79                     80                     81
                      A                      A                      A
 Frequencies --   1090.9508              1119.7213              1124.8250
 Red. masses --      3.0226                11.5728                 2.8552
 Frc consts  --      2.1195                 8.5488                 2.1284
 IR Inten    --     15.7480                58.6650               105.1000

                     82                     83                     84
                      A                      A                      A
 Frequencies --   1129.9738              1134.6887              1138.4394
 Red. masses --      2.4186                 2.4089                 1.8883
 Frc consts  --      1.8195                 1.8274                 1.4419
 IR Inten    --     83.9100                 5.1077                26.4293

                     85                     86                     87
                      A                      A                      A
 Frequencies --   1144.8928              1158.5028              1165.3748
 Red. masses --      2.8034                 3.9733                 3.8455
 Frc consts  --      2.1650                 3.1419                 3.0771
 IR Inten    --    202.7547               434.3955               102.5326

                     88                     89                     90
                      A                      A                      A
 Frequencies --   1170.1006              1179.7178              1181.2214
 Red. masses --      3.4597                 1.4547                 5.3477
 Frc consts  --      2.7909                 1.1928                 4.3962
 IR Inten    --    274.2961                58.8361               323.8040

                     91                     92                     93
                      A                      A                      A
 Frequencies --   1181.8492              1183.9565              1187.3193
 Red. masses --      1.3602                 1.5264                 1.3283
 Frc consts  --      1.1194                 1.2606                 1.1033
 IR Inten    --     38.2627                14.5936                 6.2983

                     94                     95                     96
                      A                      A                      A
 Frequencies --   1190.0264              1196.5527              1197.4633
 Red. masses --      1.9696                10.1177                 3.0745
 Frc consts  --      1.6434                 8.5349                 2.5975
 IR Inten    --     49.9703               308.4580               150.4401

                     97                     98                     99
                      A                      A                      A
 Frequencies --   1206.3264              1213.6905              1223.5381
 Red. masses --      4.3349                 1.5398                 1.6151
 Frc consts  --      3.7167                 1.3364                 1.4245
 IR Inten    --    182.1486                96.6440                28.6531

                    100                    101                    102
                      A                      A                      A
 Frequencies --   1224.3398              1229.6830              1234.3073
 Red. masses --      7.5685                 7.1834                 1.9412
 Frc consts  --      6.6844                 6.3998                 1.7425
 IR Inten    --    177.2192               278.0816                17.5609

                    103                    104                    105
                      A                      A                      A
 Frequencies --   1238.3591              1264.4740              1292.8493
 Red. masses --      1.8074                 1.8175                 3.1127
 Frc consts  --      1.6330                 1.7121                 3.0654
 IR Inten    --     52.0493                 8.8643               755.2502

                    106                    107                    108
                      A                      A                      A
 Frequencies --   1302.1320              1307.2898              1335.5605
 Red. masses --      1.4794                 1.3827                 9.4275
 Frc consts  --      1.4779                 1.3923                 9.9077
 IR Inten    --      3.0810                45.6127               318.7835

                    109                    110                    111
                      A                      A                      A
 Frequencies --   1338.2141              1343.5488              1367.7918
 Red. masses --      1.4473                 1.2539                 1.2409
 Frc consts  --      1.5270                 1.3336                 1.3678
 IR Inten    --     21.4874                11.0898                16.9746

                    112                    113                    114
                      A                      A                      A
 Frequencies --   1370.1211              1382.0361              1388.4913
 Red. masses --      1.2116                 6.1416                 1.2833
 Frc consts  --      1.3401                 6.9114                 1.4576
 IR Inten    --     31.0352               190.4808                 0.6436

                    115                    116                    117
                      A                      A                      A
 Frequencies --   1396.2107              1398.3144              1412.2697
 Red. masses --      2.8139                 2.0735                 1.3139
 Frc consts  --      3.2319                 2.3887                 1.5440
 IR Inten    --      6.9154                 9.6113                 7.9469

                    118                    119                    120
                      A                      A                      A
 Frequencies --   1422.3042              1428.9512              1440.2125
 Red. masses --      1.4479                 1.3186                 1.3672
 Frc consts  --      1.7257                 1.5863                 1.6708
 IR Inten    --     32.4846                10.8900                13.3942

                    121                    122                    123
                      A                      A                      A
 Frequencies --   1482.0954              1488.6239              1490.7532
 Red. masses --      1.0901                 1.1719                 1.1648
 Frc consts  --      1.4108                 1.5300                 1.5252
 IR Inten    --      3.4954                 0.4300                 1.2905

                    124                    125                    126
                      A                      A                      A
 Frequencies --   1492.8316              1494.1993              1502.1117
 Red. masses --      3.9122                 1.1282                 1.0744
 Frc consts  --      5.1367                 1.4841                 1.4284
 IR Inten    --      3.0306                 5.8065                14.8952

                    127                    128                    129
                      A                      A                      A
 Frequencies --   1502.1173              1503.0592              1503.4956
 Red. masses --      1.0573                 4.0447                 1.0556
 Frc consts  --      1.4056                 5.3838                 1.4059
 IR Inten    --      4.1711                 0.5480                 1.8946

                    130                    131                    132
                      A                      A                      A
 Frequencies --   1508.3075              1512.7539              1522.1731
 Red. masses --      1.1264                 1.0806                 1.0522
 Frc consts  --      1.5099                 1.4569                 1.4364
 IR Inten    --      1.5197                 6.1444                13.5589

                    133                    134                    135
                      A                      A                      A
 Frequencies --   1529.2101              1529.5559              1531.1910
 Red. masses --      1.0497                 1.0483                 1.0574
 Frc consts  --      1.4462                 1.4450                 1.4607
 IR Inten    --      6.6630                11.7498                10.9175

                    136                    137                    138
                      A                      A                      A
 Frequencies --   1661.0957              1682.8668              3013.1239
 Red. masses --      6.6030                 6.3133                 1.0820
 Frc consts  --     10.7345                10.5343                 5.7880
 IR Inten    --     17.6233                21.4103                23.5000

                    139                    140                    141
                      A                      A                      A
 Frequencies --   3027.4216              3027.6870              3028.4020
 Red. masses --      1.0360                 1.0371                 1.0381
 Frc consts  --      5.5942                 5.6015                 5.6092
 IR Inten    --     93.6220                80.3434                30.4944

                    142                    143                    144
                      A                      A                      A
 Frequencies --   3031.9927              3042.7434              3044.7281
 Red. masses --      1.0355                 1.0748                 1.0827
 Frc consts  --      5.6089                 5.8630                 5.9138
 IR Inten    --     68.9286                 9.0798                18.3249

                    145                    146                    147
                      A                      A                      A
 Frequencies --   3052.5928              3066.5488              3092.1179
 Red. masses --      1.0735                 1.0848                 1.1061
 Frc consts  --      5.8939                 6.0106                 6.2310
 IR Inten    --     43.0065                64.3333                59.9379

                    148                    149                    150
                      A                      A                      A
 Frequencies --   3103.0622              3108.4352              3109.8105
 Red. masses --      1.0993                 1.1021                 1.0970
 Frc consts  --      6.2368                 6.2740                 6.2508
 IR Inten    --     46.9419                54.3437                43.9623

                    151                    152                    153
                      A                      A                      A
 Frequencies --   3131.2146              3150.5964              3153.5641
 Red. masses --      1.0993                 1.1033                 1.0880
 Frc consts  --      6.3502                 6.4528                 6.3753
 IR Inten    --     18.9994                43.1770                12.9794

                    154                    155                    156
                      A                      A                      A
 Frequencies --   3154.2117              3155.2811              3165.9925
 Red. masses --      1.1035                 1.1044                 1.1002
 Frc consts  --      6.4685                 6.4782                 6.4975
 IR Inten    --     34.0020                34.6518                26.2706

                    157                    158                    159
                      A                      A                      A
 Frequencies --   3247.6919              3249.3671              3254.1020
 Red. masses --      1.0923                 1.0923                 1.0922
 Frc consts  --      6.7880                 6.7947                 6.8140
 IR Inten    --      1.3498                 7.4883                 5.9277

 - Thermochemistry -
 -------------------
 Temperature   298.150 Kelvin.  Pressure   1.00000 Atm.
 Atom     1 has atomic number  6 and mass  12.00000

 Molecular mass:   512.09396 amu.
 Principal axes and moments of inertia in atomic units:
                           1         2         3
     Eigenvalues --  ******************************
           X            0.99994  -0.00075   0.01047
           Y           -0.00014   0.99642   0.08452
           Z           -0.01050  -0.08452   0.99637
 This molecule is an asymmetric top.
 Rotational symmetry number  1.
 Warning -- assumption of classical behavior for rotation
           may cause significant error
 Rotational temperatures (Kelvin)      0.00724     0.00386     0.00357
 Rotational constants (GHZ):           0.15088     0.08052     0.07446
 Zero-point vibrational energy    1081598.8 (Joules/Mol)
                                  258.50832 (Kcal/Mol)
 Warning -- explicit consideration of  56 degrees of freedom as
           vibrations may cause significant error
 Vibrational temperatures:     18.86    24.01    30.38    32.90    43.17
          (Kelvin)             54.89    61.16    75.80    79.84    89.07
                              102.28   114.11   121.72   142.20   144.09
                              154.37   167.12   214.87   220.09   229.84
                              240.17   252.84   263.31   272.16   279.91
                              322.40   337.20   350.43   363.43   371.08
                              403.65   410.83   416.77   420.51   448.23
                              463.75   493.40   505.21   511.71   525.54
                              591.09   601.59   632.34   648.07   663.24
                              675.40   707.23   717.91   750.03   759.18
                              774.62   815.56   817.81   830.38   871.54
                              881.90   905.61   970.62   978.01   980.66
                             1018.09  1033.35  1053.09  1167.99  1209.29
                             1215.38  1243.08  1269.36  1315.36  1344.39
                             1356.20  1377.74  1407.43  1421.25  1456.41
                             1462.88  1489.04  1509.65  1569.63  1611.03
                             1618.37  1625.78  1632.56  1637.96  1647.25
                             1666.83  1676.71  1683.51  1697.35  1699.51
                             1700.42  1703.45  1708.29  1712.18  1721.57
                             1722.88  1735.63  1746.23  1760.40  1761.55
                             1769.24  1775.89  1781.72  1819.30  1860.12
                             1873.48  1880.90  1921.57  1925.39  1933.07
                             1967.95  1971.30  1988.44  1997.73  2008.84
                             2011.86  2031.94  2046.38  2055.94  2072.14
                             2132.40  2141.80  2144.86  2147.85  2149.82
                             2161.20  2161.21  2162.57  2163.19  2170.12
                             2176.52  2190.07  2200.19  2200.69  2203.04
                             2389.95  2421.27  4335.21  4355.78  4356.17
                             4357.19  4362.36  4377.83  4380.68  4392.00
                             4412.08  4448.87  4464.61  4472.35  4474.32
                             4505.12  4533.01  4537.28  4538.21  4539.75
                             4555.16  4672.70  4675.11  4681.93

 Zero-point correction=                           0.411959 (Hartree/Particle)
 Thermal correction to Energy=                    0.445778
 Thermal correction to Enthalpy=                  0.446722
 Thermal correction to Gibbs Free Energy=         0.341163
 Sum of electronic and zero-point Energies=          -2296.392043
 Sum of electronic and thermal Energies=             -2296.358224
 Sum of electronic and thermal Enthalpies=           -2296.357280
 Sum of electronic and thermal Free Energies=        -2296.462839

                     E (Thermal)             CV                S
                      KCal/Mol        Cal/Mol-Kelvin    Cal/Mol-Kelvin
 Total                  279.730            120.936            222.168
 Electronic               0.000              0.000              0.000
 Translational            0.889              2.981             44.587
 Rotational               0.889              2.981             37.117
 Vibrational            277.953            114.974            140.464
 Vibration     1          0.593              1.987              7.474
 Vibration     2          0.593              1.986              6.994
 Vibration     3          0.593              1.985              6.526
 Vibration     4          0.593              1.985              6.368
 Vibration     5          0.594              1.984              5.829
 Vibration     6          0.594              1.982              5.353
 Vibration     7          0.595              1.980              5.139
 Vibration     8          0.596              1.977              4.714
 Vibration     9          0.596              1.975              4.611
 Vibration    10          0.597              1.972              4.395
 Vibration    11          0.598              1.968              4.123
 Vibration    12          0.600              1.963              3.908
 Vibration    13          0.601              1.960              3.781
 Vibration    14          0.604              1.950              3.477
 Vibration    15          0.604              1.949              3.451
 Vibration    16          0.606              1.943              3.317
 Vibration    17          0.608              1.936              3.163
 Vibration    18          0.618              1.903              2.681
 Vibration    19          0.619              1.899              2.635
 Vibration    20          0.622              1.892              2.553
 Vibration    21          0.624              1.883              2.470
 Vibration    22          0.628              1.872              2.373
 Vibration    23          0.631              1.863              2.297
 Vibration    24          0.633              1.855              2.236
 Vibration    25          0.635              1.847              2.184
 Vibration    26          0.649              1.804              1.926
 Vibration    27          0.654              1.788              1.845
 Vibration    28          0.659              1.773              1.777
 Vibration    29          0.664              1.758              1.712
 Vibration    30          0.667              1.749              1.676
 Vibration    31          0.680              1.710              1.530
 Vibration    32          0.683              1.701              1.500
 Vibration    33          0.686              1.693              1.476
 Vibration    34          0.688              1.688              1.461
 Vibration    35          0.700              1.652              1.354
 Vibration    36          0.707              1.631              1.298
 Vibration    37          0.722              1.590              1.198
 Vibration    38          0.728              1.573              1.161
 Vibration    39          0.731              1.564              1.141
 Vibration    40          0.738              1.544              1.100
 Vibration    41          0.775              1.447              0.924
 Vibration    42          0.781              1.431              0.898
 Vibration    43          0.800              1.384              0.828
 Vibration    44          0.809              1.360              0.794
 Vibration    45          0.819              1.337              0.763
 Vibration    46          0.827              1.318              0.739
 Vibration    47          0.847              1.269              0.680
 Vibration    48          0.854              1.252              0.661
 Vibration    49          0.876              1.203              0.607
 Vibration    50          0.883              1.189              0.592
 Vibration    51          0.893              1.165              0.569
 Vibration    52          0.923              1.103              0.510
 Vibration    53          0.924              1.100              0.507
 Vibration    54          0.934              1.081              0.491
 Vibration    55          0.964              1.020              0.440
 Vibration    56          0.972              1.004              0.428

                           ! Non-Optimized Parameters !
 Normal termination of Gaussian 16 at Sat Jun 15 09:41:17 2019.
