 Gaussian 16, Revision A.03,
 Gaussian 16:  AS64L-G16RevA.03 25-Dec-2016

 ----------------------------------------------------------------------
 #p opt freq=noraman pop=none 6-31g* scrf=(pcm,solvent=tetrahydrofuran)
  mpw1pw91 extrabasis
 ----------------------------------------------------------------------

 -----
 title
 -----
 Symbolic Z-matrix:
 Charge =  0 Multiplicity = 1

 SCF Done:  E(RmPW1PW91) =  -2297.65793140     A.U. after   13 cycles
 Optimization completed.
    -- Stationary point found.

 1\1\GINC-NODE067\FOpt\RmPW1PW91\Gen\C18H22F6O8S1\EKWAN\15-Jun-2019\0\\
 #p opt freq=noraman pop=none 6-31g* scrf=(pcm,solvent=tetrahydrofuran)
  mpw1pw91 extrabasis\\title\\0,1\C,3.497238,-0.230675,0.727369\C,3.351
 078,-0.470461,-0.773216\C,1.884951,-0.3524,-1.2109\C,1.348053,1.086523
 ,0.610582\C,2.789256,1.063033,1.119188\H,1.779986,-0.394036,-2.294668\
 H,3.885536,0.338662,-1.29457\H,3.036233,-1.061372,1.278528\H,0.776684,
 0.309712,1.135887\H,3.327337,1.909452,0.675134\O,1.297193,0.827299,-0.
 801697\O,1.198846,-1.504273,-0.649114\O,3.910395,-1.712766,-1.099394\O

 Normal termination of Gaussian 16 at Sat Jun 15 08:54:54 2019.

 ---------------------------------------------------------------------
 #P Geom=AllCheck Guess=TCheck SCRF=Check GenChk RmPW1PW91/ChkBas Freq
 ---------------------------------------------------------------------

 Structure from the checkpoint file:  "/scratch/users/ekwan/clay_new-glu_gluC6-bisCF3-sm-mpw1pw91-custom-pcm_thf/Gau-64445.chk"
 -----
 title
 -----
 Charge =  0 Multiplicity = 1

                         Standard orientation:
 ---------------------------------------------------------------------
 Center     Atomic      Atomic             Coordinates (Angstroms)
 Number     Number       Type             X           Y           Z
 ---------------------------------------------------------------------
      1          6           0        3.497238   -0.230675    0.727369
      2          6           0        3.351078   -0.470461   -0.773216
      3          6           0        1.884951   -0.352400   -1.210900
      4          6           0        1.348053    1.086523    0.610582
      5          6           0        2.789256    1.063033    1.119188
      6          1           0        1.779986   -0.394036   -2.294668
      7          1           0        3.885536    0.338662   -1.294570
      8          1           0        3.036233   -1.061372    1.278528
      9          1           0        0.776684    0.309712    1.135887
     10          1           0        3.327337    1.909452    0.675134
     11          8           0        1.297193    0.827299   -0.801697
     12          8           0        1.198846   -1.504273   -0.649114
     13          8           0        3.910395   -1.712766   -1.099394
     14          8           0        4.857225   -0.104426    1.078473
     15          8           0        2.741175    1.184477    2.524061
     16          6           0        0.660188    2.417394    0.875098
     17          1           0        0.543277    2.506327    1.957810
     18          1           0       -0.338835    2.403834    0.420182
     19          8           0        1.383914    3.549904    0.457611
     20         16           0       -0.094527   -2.113139   -1.404691
     21          8           0       -0.183247   -3.481732   -0.930941
     22          8           0        0.007800   -1.813119   -2.825873
     23          6           0       -1.460889   -1.196378   -0.730444
     24          6           0       -2.101539   -1.683676    0.402385
     25          6           0       -1.855382   -0.017245   -1.351337
     26          6           0       -3.169528   -0.960598    0.923559
     27          1           0       -1.777137   -2.610135    0.860486
     28          6           0       -2.918955    0.694107   -0.807357
     29          1           0       -1.349291    0.333920   -2.241811
     30          6           0       -3.578112    0.227533    0.326129
     31          1           0       -4.409067    0.785844    0.739708
     32          6           0        4.313767   -1.840637   -2.449666
     33          1           0        3.461771   -1.839947   -3.139692
     34          1           0        5.004483   -1.036575   -2.733098
     35          1           0        4.826648   -2.799259   -2.532234
     36          6           0        5.440753   -1.278566    1.608651
     37          1           0        6.475786   -1.030079    1.850770
     38          1           0        4.928707   -1.595904    2.526387
     39          1           0        5.424225   -2.099774    0.886384
     40          6           0        3.628508    2.150579    3.053993
     41          1           0        3.487854    2.144256    4.136528
     42          1           0        4.669435    1.904210    2.822663
     43          1           0        3.398915    3.152199    2.669701
     44          6           0        1.201457    3.903623   -0.898986
     45          1           0        1.650609    4.890087   -1.029699
     46          1           0        0.134175    3.962457   -1.150642
     47          1           0        1.682779    3.195402   -1.580532
     48          6           0       -3.924376   -1.499579    2.108999
     49          9           0       -3.131655   -2.229371    2.905787
     50          9           0       -4.937384   -2.290873    1.721141
     51          9           0       -4.451607   -0.511727    2.846093
     52          6           0       -3.317200    2.010217   -1.417449
     53          9           0       -2.620393    3.026496   -0.871814
     54          9           0       -4.615167    2.274995   -1.222569
     55          9           0       -3.082652    2.035065   -2.735611
 ---------------------------------------------------------------------

 SCF Done:  E(RmPW1PW91) =  -2297.65793140     A.U. after    1 cycles

 Isotropic polarizability for W=    0.000000      278.37 Bohr**3.
 End of Minotr F.D. properties file   721 does not exist.

                      1                      2                      3
                      A                      A                      A
 Frequencies --     13.3744                16.0963                20.4430
 Red. masses --      9.7354                 6.5847                16.0154
 Frc consts  --      0.0010                 0.0010                 0.0039
 IR Inten    --      0.0622                 0.3380                 0.0173

                      4                      5                      6
                      A                      A                      A
 Frequencies --     22.0128                33.5829                38.0576
 Red. masses --     11.6226                 4.7487                 5.1555
 Frc consts  --      0.0033                 0.0032                 0.0044
 IR Inten    --      0.0288                 0.8077                 0.3092

                      7                      8                      9
                      A                      A                      A
 Frequencies --     43.6985                53.1314                55.8391
 Red. masses --      3.9184                 5.8234                 3.0741
 Frc consts  --      0.0044                 0.0097                 0.0056
 IR Inten    --      1.5670                 0.9589                 1.6358

                     10                     11                     12
                      A                      A                      A
 Frequencies --     61.5475                71.1640                78.7045
 Red. masses --      3.0196                 4.0297                 3.2724
 Frc consts  --      0.0067                 0.0120                 0.0119
 IR Inten    --      9.5161                 0.3670                 0.4679

                     13                     14                     15
                      A                      A                      A
 Frequencies --     84.7695                99.2411               100.5799
 Red. masses --      2.5632                 8.5162                 7.6785
 Frc consts  --      0.0109                 0.0494                 0.0458
 IR Inten    --      5.5760                 2.9724                 4.3198

                     16                     17                     18
                      A                      A                      A
 Frequencies --    106.3059               116.5342               150.4704
 Red. masses --      2.7019                 7.0474                 7.4668
 Frc consts  --      0.0180                 0.0564                 0.0996
 IR Inten    --      2.5918                 2.0472                 0.1526

                     19                     20                     21
                      A                      A                      A
 Frequencies --    153.8560               160.3805               167.7488
 Red. masses --      1.3906                 1.8085                 2.3959
 Frc consts  --      0.0194                 0.0274                 0.0397
 IR Inten    --      0.1027                 0.6090                 0.8971

                     22                     23                     24
                      A                      A                      A
 Frequencies --    176.9323               183.8056               189.9367
 Red. masses --      1.7825                 2.9812                 2.0913
 Frc consts  --      0.0329                 0.0593                 0.0445
 IR Inten    --      3.0010                 5.3179                 1.3481

                     25                     26                     27
                      A                      A                      A
 Frequencies --    194.9790               225.3191               235.8898
 Red. masses --      1.8995                 3.1847                12.0636
 Frc consts  --      0.0425                 0.0953                 0.3955
 IR Inten    --      0.2207                11.2534                 0.0857

                     28                     29                     30
                      A                      A                      A
 Frequencies --    245.1852               254.0647               260.0068
 Red. masses --      3.9129                 3.7547                 6.1508
 Frc consts  --      0.1386                 0.1428                 0.2450
 IR Inten    --      7.9162                 8.7985                11.7934

                     31                     32                     33
                      A                      A                      A
 Frequencies --    282.9419               287.4817               291.8007
 Red. masses --     11.1942                 4.9651                 9.1347
 Frc consts  --      0.5280                 0.2418                 0.4583
 IR Inten    --      3.1074                 8.8296                 6.6474

                     34                     35                     36
                      A                      A                      A
 Frequencies --    294.7306               313.9876               324.5215
 Red. masses --      8.5996                 5.4365                 4.1652
 Frc consts  --      0.4401                 0.3158                 0.2584
 IR Inten    --      8.3156                 0.2282                 5.3850

                     37                     38                     39
                      A                      A                      A
 Frequencies --    345.3471               354.0231               358.1639
 Red. masses --      7.1988                 6.1835                 4.9362
 Frc consts  --      0.5059                 0.4566                 0.3731
 IR Inten    --      0.5235                 3.0967                 6.1347

                     40                     41                     42
                      A                      A                      A
 Frequencies --    369.0212               414.1742               421.5876
 Red. masses --      9.5717                10.0583                 8.6902
 Frc consts  --      0.7680                 1.0166                 0.9100
 IR Inten    --     14.9146                15.2812                 6.2026

                     43                     44                     45
                      A                      A                      A
 Frequencies --    441.4253               454.1427               465.5368
 Red. masses --      2.1215                 5.2114                 8.7163
 Frc consts  --      0.2436                 0.6333                 1.1130
 IR Inten    --      6.3956                13.2832                17.3307

                     46                     47                     48
                      A                      A                      A
 Frequencies --    472.8923               496.0137               503.1100
 Red. masses --      4.2684                 7.6983                11.9089
 Frc consts  --      0.5624                 1.1159                 1.7760
 IR Inten    --      9.8067                21.3427                 0.6475

                     49                     50                     51
                      A                      A                      A
 Frequencies --    525.5388               532.8485               542.7855
 Red. masses --      4.5898                11.2293                 4.8693
 Frc consts  --      0.7469                 1.8785                 0.8452
 IR Inten    --     34.7342                34.6579                11.5981

                     52                     53                     54
                      A                      A                      A
 Frequencies --    570.8766               573.2693               583.3910
 Red. masses --      3.7666                14.6353                11.4695
 Frc consts  --      0.7232                 2.8338                 2.2999
 IR Inten    --     40.5935                26.1574               270.1418

                     55                     56                     57
                      A                      A                      A
 Frequencies --    611.1100               617.9448               635.0910
 Red. masses --      6.7123                 8.0284                 5.7856
 Frc consts  --      1.4769                 1.8063                 1.3749
 IR Inten    --     40.6422                 5.2088                 9.9447

                     58                     59                     60
                      A                      A                      A
 Frequencies --    680.2684               685.2005               688.9469
 Red. masses --      7.6016                12.2664                 6.0102
 Frc consts  --      2.0726                 3.3931                 1.6808
 IR Inten    --      1.1884                59.2434                34.8035

                     61                     62                     63
                      A                      A                      A
 Frequencies --    712.9429               724.4018               738.8528
 Red. masses --      2.4936                 8.7513                 5.8680
 Frc consts  --      0.7468                 2.7057                 1.8874
 IR Inten    --     32.4341                 8.1494                59.9409

                     64                     65                     66
                      A                      A                      A
 Frequencies --    825.7166               850.6959               855.4495
 Red. masses --      7.4741                 3.6846                12.6203
 Frc consts  --      3.0024                 1.5711                 5.4414
 IR Inten    --    341.5587                65.3687               316.7252

                     67                     68                     69
                      A                      A                      A
 Frequencies --    870.9474               892.5744               924.6458
 Red. masses --     11.9877                 3.9876                 1.5982
 Frc consts  --      5.3576                 1.8718                 0.8051
 IR Inten    --     21.9728                74.6021                68.6314

                     70                     71                     72
                      A                      A                      A
 Frequencies --    943.5440               953.0715               967.5711
 Red. masses --      2.7104                 1.4087                 1.3684
 Frc consts  --      1.4217                 0.7539                 0.7548
 IR Inten    --     22.2540                 4.6349                 6.3592

                     73                     74                     75
                      A                      A                      A
 Frequencies --    988.2478               997.1000              1019.2289
 Red. masses --      4.7143                 4.0967                 6.2600
 Frc consts  --      2.7127                 2.3997                 3.8315
 IR Inten    --     13.5293                46.2918                 6.8332

                     76                     77                     78
                      A                      A                      A
 Frequencies --   1027.5546              1045.3016              1059.1915
 Red. masses --      3.9846                 4.0028                 3.6267
 Frc consts  --      2.4788                 2.5769                 2.3972
 IR Inten    --     47.0689                10.3779               132.1682

                     79                     80                     81
                      A                      A                      A
 Frequencies --   1101.2923              1129.9972              1134.2915
 Red. masses --      2.9879                10.7120                 2.8241
 Frc consts  --      2.1351                 8.0589                 2.1408
 IR Inten    --     16.4313                55.5192               103.7915

                     82                     83                     84
                      A                      A                      A
 Frequencies --   1140.3067              1144.8596              1147.3369
 Red. masses --      2.2922                 2.3512                 1.8794
 Frc consts  --      1.7561                 1.8157                 1.4577
 IR Inten    --     83.4686                 4.6973                26.2611

                     85                     86                     87
                      A                      A                      A
 Frequencies --   1155.4975              1171.2089              1177.1530
 Red. masses --      2.6994                 4.3287                 3.5466
 Frc consts  --      2.1235                 3.4985                 2.8955
 IR Inten    --    199.6083               426.7459                96.8174

                     88                     89                     90
                      A                      A                      A
 Frequencies --   1181.9556              1189.2336              1191.1607
 Red. masses --      3.1446                 1.3378                 1.2901
 Frc consts  --      2.5883                 1.1148                 1.0785
 IR Inten    --    280.5435                12.8750                 7.0651

                     91                     92                     93
                      A                      A                      A
 Frequencies --   1193.4227              1195.9549              1196.7072
 Red. masses --      1.3944                 1.6368                 3.6511
 Frc consts  --      1.1701                 1.3793                 3.0807
 IR Inten    --      8.2119               116.7676               277.3450

                     94                     95                     96
                      A                      A                      A
 Frequencies --   1201.2789              1209.2291              1210.9889
 Red. masses --      2.1911                 3.0623                11.8888
 Frc consts  --      1.8630                 2.6382                10.2723
 IR Inten    --     76.6785               111.6049               338.1931

                     97                     98                     99
                      A                      A                      A
 Frequencies --   1219.6680              1224.0642              1234.2233
 Red. masses --      4.3601                 1.6276                 1.6444
 Frc consts  --      3.8214                 1.4369                 1.4759
 IR Inten    --    174.0291               135.3015                32.9463

                    100                    101                    102
                      A                      A                      A
 Frequencies --   1237.5410              1242.8374              1245.8040
 Red. masses --      7.8788                 7.3088                 1.9360
 Frc consts  --      7.1093                 6.6516                 1.7703
 IR Inten    --    168.0094               290.9730                11.6584

                    103                    104                    105
                      A                      A                      A
 Frequencies --   1249.1962              1275.1278              1304.5884
 Red. masses --      1.9324                 1.8320                 2.8902
 Frc consts  --      1.7767                 1.7550                 2.8982
 IR Inten    --     67.8031                 9.4518               714.8839

                    106                    107                    108
                      A                      A                      A
 Frequencies --   1312.6538              1316.7271              1349.4607
 Red. masses --      1.4856                 1.4561                 2.4725
 Frc consts  --      1.5081                 1.4874                 2.6529
 IR Inten    --      3.8056                93.2920               143.7412

                    109                    110                    111
                      A                      A                      A
 Frequencies --   1350.1819              1354.8010              1379.7468
 Red. masses --      2.3369                 1.3333                 1.2423
 Frc consts  --      2.5100                 1.4419                 1.3934
 IR Inten    --    208.8150                 8.0059                16.3853

                    112                    113                    114
                      A                      A                      A
 Frequencies --   1381.4525              1395.3132              1399.9710
 Red. masses --      1.2150                 6.1752                 1.5420
 Frc consts  --      1.3662                 7.0835                 1.7806
 IR Inten    --     30.7740               190.1730                 0.1567

                    115                    116                    117
                      A                      A                      A
 Frequencies --   1401.0636              1410.2866              1424.1477
 Red. masses --      3.3556                 1.4729                 1.3137
 Frc consts  --      3.8809                 1.7260                 1.5698
 IR Inten    --      0.5677                16.8100                 8.7442

                    118                    119                    120
                      A                      A                      A
 Frequencies --   1435.2568              1440.9397              1453.0437
 Red. masses --      1.4762                 1.3314                 1.3827
 Frc consts  --      1.7917                 1.6288                 1.7200
 IR Inten    --     32.6961                11.9452                13.3969

                    121                    122                    123
                      A                      A                      A
 Frequencies --   1493.3575              1500.2706              1502.1709
 Red. masses --      1.0904                 1.1745                 1.1686
 Frc consts  --      1.4327                 1.5576                 1.5537
 IR Inten    --      3.2456                 0.4546                 1.2079

                    124                    125                    126
                      A                      A                      A
 Frequencies --   1504.7604              1505.6454              1513.5786
 Red. masses --      3.9641                 1.1302                 1.0760
 Frc consts  --      5.2885                 1.5096                 1.4523
 IR Inten    --      2.9741                 5.7003                15.4125

                    127                    128                    129
                      A                      A                      A
 Frequencies --   1513.7661              1514.5980              1515.0373
 Red. masses --      1.0531                 4.1311                 1.0556
 Frc consts  --      1.4218                 5.5835                 1.4276
 IR Inten    --      3.9632                 0.4234                 2.1474

                    130                    131                    132
                      A                      A                      A
 Frequencies --   1519.6279              1524.0403              1533.0495
 Red. masses --      1.1270                 1.0802                 1.0523
 Frc consts  --      1.5333                 1.4783                 1.4571
 IR Inten    --      1.4034                 6.3755                13.5716

                    133                    134                    135
                      A                      A                      A
 Frequencies --   1540.1144              1540.5608              1541.9033
 Red. masses --      1.0498                 1.0487                 1.0571
 Frc consts  --      1.4671                 1.4664                 1.4807
 IR Inten    --      8.2225                 9.9709                10.9887

                    136                    137                    138
                      A                      A                      A
 Frequencies --   1675.9350              1697.3482              3036.0702
 Red. masses --      6.5753                 6.2929                 1.0820
 Frc consts  --     10.8813                10.6818                 5.8764
 IR Inten    --     19.9028                23.5766                22.7653

                    139                    140                    141
                      A                      A                      A
 Frequencies --   3048.8752              3048.9597              3049.9641
 Red. masses --      1.0357                 1.0370                 1.0380
 Frc consts  --      5.6725                 5.6797                 5.6889
 IR Inten    --     56.8919               110.7332                33.9208

                    142                    143                    144
                      A                      A                      A
 Frequencies --   3053.6765              3064.6153              3067.0121
 Red. masses --      1.0350                 1.0740                 1.0829
 Frc consts  --      5.6862                 5.9429                 6.0017
 IR Inten    --     67.5971                10.1573                19.0791

                    145                    146                    147
                      A                      A                      A
 Frequencies --   3074.3369              3088.8173              3114.9803
 Red. masses --      1.0746                 1.0849                 1.1062
 Frc consts  --      5.9843                 6.0988                 6.3240
 IR Inten    --     41.5530                63.3650                59.6024

                    148                    149                    150
                      A                      A                      A
 Frequencies --   3125.9629              3130.9607              3132.2633
 Red. masses --      1.0994                 1.1027                 1.0975
 Frc consts  --      6.3293                 6.3690                 6.3443
 IR Inten    --     46.8280                54.7048                43.4495

                    151                    152                    153
                      A                      A                      A
 Frequencies --   3153.0073              3172.0936              3175.3974
 Red. masses --      1.0995                 1.1037                 1.1037
 Frc consts  --      6.4399                 6.5432                 6.5571
 IR Inten    --     19.3015                43.1774                37.0006

                    154                    155                    156
                      A                      A                      A
 Frequencies --   3176.5460              3176.8332              3187.1163
 Red. masses --      1.1046                 1.0883                 1.1005
 Frc consts  --      6.5667                 6.4710                 6.5862
 IR Inten    --     33.8014                11.5057                26.2813

                    157                    158                    159
                      A                      A                      A
 Frequencies --   3267.9915              3269.7727              3274.5339
 Red. masses --      1.0925                 1.0924                 1.0923
 Frc consts  --      6.8742                 6.8815                 6.9008
 IR Inten    --      1.4012                 7.5262                 6.0652

 - Thermochemistry -
 -------------------
 Temperature   298.150 Kelvin.  Pressure   1.00000 Atm.
 Atom     1 has atomic number  6 and mass  12.00000

 Molecular mass:   512.09396 amu.
 Principal axes and moments of inertia in atomic units:
                           1         2         3
     Eigenvalues --  ******************************
           X            0.99995  -0.00070   0.01041
           Y           -0.00021   0.99626   0.08643
           Z           -0.01043  -0.08643   0.99620
 This molecule is an asymmetric top.
 Rotational symmetry number  1.
 Warning -- assumption of classical behavior for rotation
           may cause significant error
 Rotational temperatures (Kelvin)      0.00726     0.00387     0.00359
 Rotational constants (GHZ):           0.15126     0.08072     0.07476
 Zero-point vibrational energy    1090302.8 (Joules/Mol)
                                  260.58862 (Kcal/Mol)
 Warning -- explicit consideration of  56 degrees of freedom as
           vibrations may cause significant error
 Vibrational temperatures:     19.24    23.16    29.41    31.67    48.32
          (Kelvin)             54.76    62.87    76.44    80.34    88.55
                              102.39   113.24   121.96   142.79   144.71
                              152.95   167.67   216.49   221.36   230.75
                              241.35   254.57   264.46   273.28   280.53
                              324.18   339.39   352.77   365.54   374.09
                              407.09   413.62   419.84   424.05   451.76
                              466.91   496.88   509.36   515.32   530.94
                              595.90   606.57   635.11   653.41   669.80
                              680.39   713.65   723.86   756.13   766.65
                              780.95   821.36   824.81   839.37   879.25
                              889.08   913.75   978.75   985.85   991.24
                             1025.77  1042.25  1063.04  1188.02  1223.96
                             1230.80  1253.10  1284.22  1330.36  1357.55
                             1371.26  1392.12  1421.87  1434.60  1466.44
                             1478.42  1503.96  1523.94  1584.51  1625.81
                             1631.99  1640.65  1647.20  1650.76  1662.50
                             1685.11  1693.66  1700.57  1711.04  1713.81
                             1717.07  1720.71  1721.79  1728.37  1739.81
                             1742.34  1754.83  1761.16  1775.77  1780.55
                             1788.17  1792.43  1797.31  1834.62  1877.01
                             1888.62  1894.48  1941.57  1942.61  1949.26
                             1985.15  1987.60  2007.54  2014.25  2015.82
                             2029.09  2049.03  2065.01  2073.19  2090.61
                             2148.61  2158.55  2161.29  2165.01  2166.29
                             2177.70  2177.97  2179.17  2179.80  2186.41
                             2192.75  2205.72  2215.88  2216.52  2218.45
                             2411.30  2442.11  4368.23  4386.65  4386.77
                             4388.22  4393.56  4409.30  4412.75  4423.29
                             4444.12  4481.76  4497.56  4504.75  4506.63
                             4536.47  4563.94  4568.69  4570.34  4570.75
                             4585.55  4701.91  4704.47  4711.32

 Zero-point correction=                           0.415274 (Hartree/Particle)
 Thermal correction to Energy=                    0.448911
 Thermal correction to Enthalpy=                  0.449855
 Thermal correction to Gibbs Free Energy=         0.344652
 Sum of electronic and zero-point Energies=          -2297.242657
 Sum of electronic and thermal Energies=             -2297.209020
 Sum of electronic and thermal Enthalpies=           -2297.208076
 Sum of electronic and thermal Free Energies=        -2297.313279

                     E (Thermal)             CV                S
                      KCal/Mol        Cal/Mol-Kelvin    Cal/Mol-Kelvin
 Total                  281.696            120.129            221.419
 Electronic               0.000              0.000              0.000
 Translational            0.889              2.981             44.587
 Rotational               0.889              2.981             37.108
 Vibrational            279.919            114.167            139.725
 Vibration     1          0.593              1.987              7.433
 Vibration     2          0.593              1.986              7.065
 Vibration     3          0.593              1.986              6.591
 Vibration     4          0.593              1.985              6.444
 Vibration     5          0.594              1.983              5.606
 Vibration     6          0.594              1.982              5.358
 Vibration     7          0.595              1.980              5.084
 Vibration     8          0.596              1.976              4.697
 Vibration     9          0.596              1.975              4.599
 Vibration    10          0.597              1.973              4.407
 Vibration    11          0.598              1.968              4.121
 Vibration    12          0.600              1.963              3.923
 Vibration    13          0.601              1.960              3.777
 Vibration    14          0.604              1.950              3.469
 Vibration    15          0.604              1.949              3.443
 Vibration    16          0.605              1.944              3.335
 Vibration    17          0.608              1.936              3.157
 Vibration    18          0.618              1.902              2.666
 Vibration    19          0.619              1.898              2.624
 Vibration    20          0.622              1.891              2.545
 Vibration    21          0.624              1.882              2.461
 Vibration    22          0.628              1.871              2.361
 Vibration    23          0.631              1.862              2.289
 Vibration    24          0.633              1.854              2.228
 Vibration    25          0.636              1.847              2.180
 Vibration    26          0.650              1.802              1.916
 Vibration    27          0.655              1.786              1.834
 Vibration    28          0.660              1.771              1.765
 Vibration    29          0.665              1.756              1.702
 Vibration    30          0.668              1.746              1.662
 Vibration    31          0.682              1.705              1.516
 Vibration    32          0.685              1.697              1.489
 Vibration    33          0.687              1.689              1.463
 Vibration    34          0.689              1.684              1.447
 Vibration    35          0.702              1.647              1.341
 Vibration    36          0.709              1.626              1.287
 Vibration    37          0.724              1.585              1.187
 Vibration    38          0.730              1.567              1.148
 Vibration    39          0.733              1.558              1.130
 Vibration    40          0.741              1.536              1.084
 Vibration    41          0.778              1.439              0.912
 Vibration    42          0.784              1.423              0.887
 Vibration    43          0.801              1.380              0.822
 Vibration    44          0.813              1.352              0.783
 Vibration    45          0.823              1.327              0.750
 Vibration    46          0.830              1.310              0.729
 Vibration    47          0.852              1.259              0.668
 Vibration    48          0.858              1.243              0.650
 Vibration    49          0.880              1.193              0.597
 Vibration    50          0.888              1.177              0.581
 Vibration    51          0.898              1.155              0.559
 Vibration    52          0.927              1.094              0.503
 Vibration    53          0.930              1.089              0.498
 Vibration    54          0.940              1.067              0.479
 Vibration    55          0.970              1.008              0.431
 Vibration    56          0.978              0.994              0.420

                           ! Non-Optimized Parameters !

 1\1\GINC-NODE067\Freq\RmPW1PW91\Gen\C18H22F6O8S1\EKWAN\15-Jun-2019\0\\
 #P Geom=AllCheck Guess=TCheck SCRF=Check GenChk RmPW1PW91/ChkBas Freq\
 \title\\0,1\C,3.497238,-0.230675,0.727369\C,3.351078,-0.470461,-0.7732
 16\C,1.884951,-0.3524,-1.2109\C,1.348053,1.086523,0.610582\C,2.789256,
 1.063033,1.119188\H,1.779986,-0.394036,-2.294668\H,3.885536,0.338662,-
 1.29457\H,3.036233,-1.061372,1.278528\H,0.776684,0.309712,1.135887\H,3
 .327337,1.909452,0.675134\O,1.297193,0.827299,-0.801697\O,1.198846,-1.
 504273,-0.649114\O,3.910395,-1.712766,-1.099394\O,4.857225,-0.104426,1

 Normal termination of Gaussian 16 at Sat Jun 15 09:38:15 2019.
