 Gaussian 16, Revision A.03,
 Gaussian 16:  AS64L-G16RevA.03 25-Dec-2016

 ----------------------------------------------------------------------
 #p opt freq=noraman pop=none 6-31g* scrf=(pcm,solvent=tetrahydrofuran)
  mpw1pbe extrabasis
 ----------------------------------------------------------------------

 -----
 title
 -----
 Symbolic Z-matrix:
 Charge =  0 Multiplicity = 1

 SCF Done:  E(RmPW1PBE) =  -2296.99261234     A.U. after   13 cycles
 Optimization completed.
    -- Stationary point found.
 Normal termination of Gaussian 16 at Sat Jun 15 08:50:10 2019.

 --------------------------------------------------------------------
 #P Geom=AllCheck Guess=TCheck SCRF=Check GenChk RmPW1PBE/ChkBas Freq
 --------------------------------------------------------------------

 Structure from the checkpoint file:  "/scratch/users/ekwan/clay_new-glu_gluC6-bisCF3-sm-mpw1pbe-custom-pcm_thf/Gau-27747.chk"
 -----
 title
 -----
 Charge =  0 Multiplicity = 1

                         Standard orientation:
 ---------------------------------------------------------------------
 Center     Atomic      Atomic             Coordinates (Angstroms)
 Number     Number       Type             X           Y           Z
 ---------------------------------------------------------------------
      1          6           0        3.498276   -0.233107    0.725112
      2          6           0        3.350479   -0.470247   -0.775628
      3          6           0        1.883924   -0.349777   -1.211224
      4          6           0        1.351012    1.086858    0.611617
      5          6           0        2.792524    1.061016    1.119185
      6          1           0        1.777448   -0.390371   -2.295580
      7          1           0        3.885564    0.339761   -1.296366
      8          1           0        3.035836   -1.064324    1.275600
      9          1           0        0.778938    0.309473    1.136701
     10          1           0        3.331629    1.907738    0.675290
     11          8           0        1.298602    0.830380   -0.800477
     12          8           0        1.197688   -1.500600   -0.649374
     13          8           0        3.907805   -1.712421   -1.104166
     14          8           0        4.858368   -0.109644    1.075301
     15          8           0        2.746007    1.180519    2.523899
     16          6           0        0.665221    2.418119    0.879595
     17          1           0        0.548954    2.504484    1.963192
     18          1           0       -0.334721    2.406781    0.425121
     19          8           0        1.389960    3.550407    0.464587
     20         16           0       -0.094450   -2.109643   -1.405645
     21          8           0       -0.182275   -3.478438   -0.932969
     22          8           0        0.007815   -1.808118   -2.826279
     23          6           0       -1.461419   -1.194813   -0.730982
     24          6           0       -2.100967   -1.683082    0.402343
     25          6           0       -1.857843   -0.016107   -1.351929
     26          6           0       -3.169747   -0.961225    0.924103
     27          1           0       -1.774941   -2.609727    0.860371
     28          6           0       -2.922210    0.693996   -0.807299
     29          1           0       -1.352376    0.335636   -2.243279
     30          6           0       -3.580214    0.226561    0.326749
     31          1           0       -4.412126    0.784137    0.741003
     32          6           0        4.310142   -1.837637   -2.454547
     33          1           0        3.457537   -1.834303   -3.144735
     34          1           0        5.002248   -1.033531   -2.736785
     35          1           0        4.821994   -2.797232   -2.539810
     36          6           0        5.438875   -1.285069    1.604791
     37          1           0        6.475415   -1.039529    1.846081
     38          1           0        4.926702   -1.601221    2.523581
     39          1           0        5.419499   -2.106840    0.882322
     40          6           0        3.632773    2.146950    3.053039
     41          1           0        3.493773    2.139773    4.136367
     42          1           0        4.674279    1.901888    2.820058
     43          1           0        3.401535    3.149204    2.669732
     44          6           0        1.207534    3.906532   -0.890926
     45          1           0        1.658009    4.893213   -1.020282
     46          1           0        0.139697    3.967274   -1.142440
     47          1           0        1.687955    3.198722   -1.574466
     48          6           0       -3.923509   -1.501126    2.110210
     49          9           0       -3.129808   -2.230519    2.905765
     50          9           0       -4.936084   -2.292493    1.722712
     51          9           0       -4.450377   -0.513882    2.847722
     52          6           0       -3.322676    2.009833   -1.417338
     53          9           0       -2.627410    3.026573   -0.871823
     54          9           0       -4.620731    2.272245   -1.222127
     55          9           0       -3.088530    2.034803   -2.735222
 ---------------------------------------------------------------------

 SCF Done:  E(RmPW1PBE) =  -2296.99261234     A.U. after    1 cycles

 Isotropic polarizability for W=    0.000000      278.63 Bohr**3.
 End of Minotr F.D. properties file   721 does not exist.

                      1                      2                      3
                      A                      A                      A
 Frequencies --     13.3391                15.8536                20.2330
 Red. masses --      9.7243                 6.5829                15.9656
 Frc consts  --      0.0010                 0.0010                 0.0039
 IR Inten    --      0.0571                 0.3479                 0.0172

                      4                      5                      6
                      A                      A                      A
 Frequencies --     21.7512                33.7748                37.8680
 Red. masses --     11.7905                 5.1979                 5.0640
 Frc consts  --      0.0033                 0.0035                 0.0043
 IR Inten    --      0.0269                 0.6326                 0.3031

                      7                      8                      9
                      A                      A                      A
 Frequencies --     43.8721                53.0279                55.8331
 Red. masses --      3.7285                 5.7748                 3.0540
 Frc consts  --      0.0042                 0.0096                 0.0056
 IR Inten    --      1.5056                 0.9247                 1.6950

                     10                     11                     12
                      A                      A                      A
 Frequencies --     61.5263                71.0086                78.4373
 Red. masses --      3.0135                 4.0032                 3.2744
 Frc consts  --      0.0067                 0.0119                 0.0119
 IR Inten    --      9.7503                 0.3751                 0.4388

                     13                     14                     15
                      A                      A                      A
 Frequencies --     84.2921                99.0203               100.4165
 Red. masses --      2.5929                 8.4843                 7.6236
 Frc consts  --      0.0109                 0.0490                 0.0453
 IR Inten    --      5.5624                 2.9154                 4.3191

                     16                     17                     18
                      A                      A                      A
 Frequencies --    105.9483               116.2671               150.2107
 Red. masses --      2.7036                 7.0812                 7.5005
 Frc consts  --      0.0179                 0.0564                 0.0997
 IR Inten    --      2.6516                 2.0147                 0.1528

                     19                     20                     21
                      A                      A                      A
 Frequencies --    153.8260               160.2458               167.4770
 Red. masses --      1.4140                 1.7688                 2.4007
 Frc consts  --      0.0197                 0.0268                 0.0397
 IR Inten    --      0.0861                 0.5954                 0.8837

                     22                     23                     24
                      A                      A                      A
 Frequencies --    176.9231               183.5054               189.8618
 Red. masses --      1.7715                 2.9931                 2.0966
 Frc consts  --      0.0327                 0.0594                 0.0445
 IR Inten    --      3.0039                 5.2482                 1.3757

                     25                     26                     27
                      A                      A                      A
 Frequencies --    194.7903               225.1447               235.4975
 Red. masses --      1.9018                 3.1763                12.0434
 Frc consts  --      0.0425                 0.0949                 0.3935
 IR Inten    --      0.2220                11.2165                 0.0808

                     28                     29                     30
                      A                      A                      A
 Frequencies --    244.9814               253.8888               259.8992
 Red. masses --      3.8883                 3.7489                 6.1720
 Frc consts  --      0.1375                 0.1424                 0.2456
 IR Inten    --      8.0184                 8.7456                11.7606

                     31                     32                     33
                      A                      A                      A
 Frequencies --    282.7483               287.1037               291.5324
 Red. masses --     11.1539                 4.9196                 9.0694
 Frc consts  --      0.5254                 0.2389                 0.4542
 IR Inten    --      3.1626                 8.4039                 7.2336

                     34                     35                     36
                      A                      A                      A
 Frequencies --    294.5155               313.6199               324.3106
 Red. masses --      8.7080                 5.4345                 4.1631
 Frc consts  --      0.4450                 0.3149                 0.2580
 IR Inten    --      8.1243                 0.2241                 5.3910

                     37                     38                     39
                      A                      A                      A
 Frequencies --    345.0969               353.7821               357.9378
 Red. masses --      7.1946                 6.0634                 5.0171
 Frc consts  --      0.5048                 0.4471                 0.3787
 IR Inten    --      0.5183                 2.8322                 6.1413

                     40                     41                     42
                      A                      A                      A
 Frequencies --    368.9751               413.9681               421.3483
 Red. masses --      9.5523                10.0403                 8.6690
 Frc consts  --      0.7662                 1.0138                 0.9068
 IR Inten    --     14.7421                15.0971                 6.0142

                     43                     44                     45
                      A                      A                      A
 Frequencies --    441.0304               453.9811               465.4923
 Red. masses --      2.1135                 5.2293                 8.7001
 Frc consts  --      0.2422                 0.6350                 1.1107
 IR Inten    --      6.3756                13.2209                17.0713

                     46                     47                     48
                      A                      A                      A
 Frequencies --    472.6645               495.9174               503.1747
 Red. masses --      4.2600                 7.6743                11.9080
 Frc consts  --      0.5607                 1.1120                 1.7763
 IR Inten    --      9.7567                21.4393                 0.6449

                     49                     50                     51
                      A                      A                      A
 Frequencies --    525.3548               532.9523               542.5924
 Red. masses --      4.5584                11.3340                 4.8754
 Frc consts  --      0.7413                 1.8968                 0.8457
 IR Inten    --     34.1184                35.4372                11.3820

                     52                     53                     54
                      A                      A                      A
 Frequencies --    570.6211               573.4651               583.3417
 Red. masses --      3.7451                14.8947                11.4997
 Frc consts  --      0.7185                 2.8860                 2.3056
 IR Inten    --     40.3540                25.7005               270.5990

                     55                     56                     57
                      A                      A                      A
 Frequencies --    610.9837               617.8919               634.8254
 Red. masses --      6.7204                 8.0436                 5.7877
 Frc consts  --      1.4781                 1.8094                 1.3742
 IR Inten    --     40.7361                 5.0209                 9.8767

                     58                     59                     60
                      A                      A                      A
 Frequencies --    680.1162               685.1969               689.1298
 Red. masses --      7.6022                12.3036                 5.9417
 Frc consts  --      2.0718                 3.4034                 1.6625
 IR Inten    --      1.1376                59.4613                33.3998

                     61                     62                     63
                      A                      A                      A
 Frequencies --    712.4339               724.6494               739.0400
 Red. masses --      2.4906                 8.6317                 5.9285
 Frc consts  --      0.7448                 2.6706                 1.9078
 IR Inten    --     32.9386                 8.6703                58.3244

                     64                     65                     66
                      A                      A                      A
 Frequencies --    826.9787               851.5647               856.5922
 Red. masses --      7.2985                 3.7289                12.0272
 Frc consts  --      2.9408                 1.5932                 5.1995
 IR Inten    --    319.0672                40.6454               357.1366

                     67                     68                     69
                      A                      A                      A
 Frequencies --    871.3003               893.7004               923.5398
 Red. masses --     11.9665                 3.9628                 1.6009
 Frc consts  --      5.3525                 1.8648                 0.8045
 IR Inten    --     21.2583                79.3985                69.7079

                     70                     71                     72
                      A                      A                      A
 Frequencies --    944.2483               951.8641               966.2156
 Red. masses --      2.6831                 1.4105                 1.3687
 Frc consts  --      1.4095                 0.7529                 0.7529
 IR Inten    --     21.7136                 4.6761                 6.2090

                     73                     74                     75
                      A                      A                      A
 Frequencies --    989.4700               998.1332              1018.4243
 Red. masses --      4.7061                 4.0760                 6.3023
 Frc consts  --      2.7147                 2.3926                 3.8513
 IR Inten    --     14.4680                47.3267                 5.7715

                     76                     77                     78
                      A                      A                      A
 Frequencies --   1028.5262              1046.5458              1059.8461
 Red. masses --      3.9468                 3.9380                 3.6612
 Frc consts  --      2.4600                 2.5413                 2.4230
 IR Inten    --     48.2933                 9.7236               131.5449

                     79                     80                     81
                      A                      A                      A
 Frequencies --   1101.9063              1130.6530              1134.4182
 Red. masses --      2.9628                10.1766                 2.8012
 Frc consts  --      2.1195                 7.6650                 2.1239
 IR Inten    --     16.1495                52.9535               100.6235

                     82                     83                     84
                      A                      A                      A
 Frequencies --   1140.3152              1145.1217              1146.7980
 Red. masses --      2.2113                 2.2992                 1.8686
 Frc consts  --      1.6941                 1.7764                 1.4479
 IR Inten    --     82.0411                 5.0349                23.9666

                     85                     86                     87
                      A                      A                      A
 Frequencies --   1156.0501              1172.3092              1178.5305
 Red. masses --      2.6229                 4.5863                 3.3571
 Frc consts  --      2.0653                 3.7136                 2.7472
 IR Inten    --    190.0875               425.5982                95.5021

                     88                     89                     90
                      A                      A                      A
 Frequencies --   1183.0102              1188.1315              1190.0159
 Red. masses --      2.9231                 1.3482                 1.2911
 Frc consts  --      2.4103                 1.1214                 1.0772
 IR Inten    --    275.7570                11.4732                 8.7884

                     91                     92                     93
                      A                      A                      A
 Frequencies --   1192.4793              1194.8556              1198.8335
 Red. masses --      1.3676                 1.3039                 6.7213
 Frc consts  --      1.1458                 1.0968                 5.6914
 IR Inten    --      3.3317                11.4658               361.5133

                     94                     95                     96
                      A                      A                      A
 Frequencies --   1201.4422              1209.9984              1213.2994
 Red. masses --      2.3415                 3.0488                12.4233
 Frc consts  --      1.9914                 2.6299                10.7751
 IR Inten    --    102.9619               104.4826               338.8915

                     97                     98                     99
                      A                      A                      A
 Frequencies --   1221.1270              1223.2344              1233.3910
 Red. masses --      4.2499                 1.7138                 1.6674
 Frc consts  --      3.7338                 1.5109                 1.4945
 IR Inten    --    166.1580               163.3529                34.3810

                    100                    101                    102
                      A                      A                      A
 Frequencies --   1239.5897              1244.7570              1245.2586
 Red. masses --      7.9267                 7.4424                 1.9226
 Frc consts  --      7.1762                 6.7941                 1.7566
 IR Inten    --    168.3956               292.2779                 7.5055

                    103                    104                    105
                      A                      A                      A
 Frequencies --   1248.8563              1273.9510              1304.2277
 Red. masses --      2.0503                 1.8469                 2.6880
 Frc consts  --      1.8840                 1.7661                 2.6939
 IR Inten    --     77.2822                 9.9426               675.0241

                    106                    107                    108
                      A                      A                      A
 Frequencies --   1310.9311              1315.0633              1348.4205
 Red. masses --      1.4923                 1.5045                 1.3587
 Frc consts  --      1.5110                 1.5330                 1.4556
 IR Inten    --      4.5408               137.2973                 1.5942

                    109                    110                    111
                      A                      A                      A
 Frequencies --   1352.0363              1353.4031              1378.1330
 Red. masses --      8.9858                 1.3613                 1.2430
 Frc consts  --      9.6780                 1.4691                 1.3909
 IR Inten    --    354.2446                 2.8673                15.5728

                    112                    113                    114
                      A                      A                      A
 Frequencies --   1379.5370              1395.4832              1398.4052
 Red. masses --      1.2200                 6.1956                 1.3045
 Frc consts  --      1.3680                 7.1085                 1.5030
 IR Inten    --     30.7106               192.1427                 0.1465

                    115                    116                    117
                      A                      A                      A
 Frequencies --   1402.1949              1408.8673              1422.3326
 Red. masses --      5.5052                 1.5047                 1.3166
 Frc consts  --      6.3773                 1.7598                 1.5693
 IR Inten    --      0.6834                17.3418                 8.6854

                    118                    119                    120
                      A                      A                      A
 Frequencies --   1433.6723              1439.1564              1451.5234
 Red. masses --      1.4861                 1.3349                 1.3895
 Frc consts  --      1.7997                 1.6290                 1.7249
 IR Inten    --     33.1340                11.9105                13.4096

                    121                    122                    123
                      A                      A                      A
 Frequencies --   1491.0435              1498.3371              1500.1703
 Red. masses --      1.0895                 1.1755                 1.1694
 Frc consts  --      1.4272                 1.5548                 1.5506
 IR Inten    --      3.2926                 0.5503                 1.1728

                    124                    125                    126
                      A                      A                      A
 Frequencies --   1503.6323              1504.0901              1511.3610
 Red. masses --      1.1301                 3.9993                 1.0660
 Frc consts  --      1.5054                 5.3307                 1.4346
 IR Inten    --      5.9657                 2.7156                15.9906

                    127                    128                    129
                      A                      A                      A
 Frequencies --   1511.6327              1512.9031              1514.0915
 Red. masses --      1.0516                 1.0557                 4.3402
 Frc consts  --      1.4158                 1.4237                 5.8622
 IR Inten    --      4.0317                 2.2736                 0.0927

                    130                    131                    132
                      A                      A                      A
 Frequencies --   1517.5885              1522.1042              1530.9853
 Red. masses --      1.1280                 1.0810                 1.0523
 Frc consts  --      1.5306                 1.4756                 1.4533
 IR Inten    --      1.4145                 6.3102                13.6874

                    133                    134                    135
                      A                      A                      A
 Frequencies --   1538.0148              1538.4906              1539.8233
 Red. masses --      1.0497                 1.0486                 1.0569
 Frc consts  --      1.4629                 1.4624                 1.4765
 IR Inten    --      8.6805                 9.7485                11.1181

                    136                    137                    138
                      A                      A                      A
 Frequencies --   1675.9809              1697.3392              3033.0594
 Red. masses --      6.6291                 6.3447                 1.0821
 Frc consts  --     10.9709                10.7695                 5.8649
 IR Inten    --     20.0579                23.7417                22.6390

                    139                    140                    141
                      A                      A                      A
 Frequencies --   3045.7801              3045.8614              3046.9181
 Red. masses --      1.0368                 1.0359                 1.0379
 Frc consts  --      5.6671                 5.6620                 5.6769
 IR Inten    --     34.3032               132.8804                34.5919

                    142                    143                    144
                      A                      A                      A
 Frequencies --   3050.7222              3061.4574              3063.9388
 Red. masses --      1.0349                 1.0739                 1.0828
 Frc consts  --      5.6746                 5.9304                 5.9893
 IR Inten    --     67.5807                10.2416                19.2076

                    145                    146                    147
                      A                      A                      A
 Frequencies --   3071.1647              3085.6654              3112.5204
 Red. masses --      1.0748                 1.0850                 1.1061
 Frc consts  --      5.9729                 6.0864                 6.3137
 IR Inten    --     40.9845                62.8583                59.2137

                    148                    149                    150
                      A                      A                      A
 Frequencies --   3123.3737              3128.3688              3129.5296
 Red. masses --      1.0993                 1.1028                 1.0977
 Frc consts  --      6.3186                 6.3590                 6.3343
 IR Inten    --     46.4884                55.1183                42.3483

                    151                    152                    153
                      A                      A                      A
 Frequencies --   3150.4234              3169.6319              3172.9153
 Red. masses --      1.0994                 1.1037                 1.1035
 Frc consts  --      6.4291                 6.5330                 6.5457
 IR Inten    --     19.0915                42.6881                39.4624

                    154                    155                    156
                      A                      A                      A
 Frequencies --   3173.2052              3174.0610              3184.6151
 Red. masses --      1.0883                 1.1046                 1.1005
 Frc consts  --      6.4566                 6.5567                 6.5761
 IR Inten    --      7.2109                34.7689                26.0923

                    157                    158                    159
                      A                      A                      A
 Frequencies --   3264.9678              3266.7036              3271.4769
 Red. masses --      1.0925                 1.0925                 1.0924
 Frc consts  --      6.8617                 6.8688                 6.8882
 IR Inten    --      1.4383                 7.6740                 6.2072

 - Thermochemistry -
 -------------------
 Temperature   298.150 Kelvin.  Pressure   1.00000 Atm.
 Atom     1 has atomic number  6 and mass  12.00000

 Molecular mass:   512.09396 amu.
 Principal axes and moments of inertia in atomic units:
                           1         2         3
     Eigenvalues --  ******************************
           X            0.99995  -0.00067   0.01038
           Y           -0.00023   0.99622   0.08683
           Z           -0.01039  -0.08683   0.99617
 This molecule is an asymmetric top.
 Rotational symmetry number  1.
 Warning -- assumption of classical behavior for rotation
           may cause significant error
 Rotational temperatures (Kelvin)      0.00726     0.00387     0.00359
 Rotational constants (GHZ):           0.15128     0.08067     0.07473
 Zero-point vibrational energy    1089685.2 (Joules/Mol)
                                  260.44101 (Kcal/Mol)
 Warning -- explicit consideration of  56 degrees of freedom as
           vibrations may cause significant error
 Vibrational temperatures:     19.19    22.81    29.11    31.30    48.59
          (Kelvin)             54.48    63.12    76.30    80.33    88.52
                              102.17   112.85   121.28   142.47   144.48
                              152.44   167.28   216.12   221.32   230.56
                              240.96   254.55   264.02   273.17   280.26
                              323.93   338.83   352.47   365.29   373.94
                              406.81   413.08   419.45   423.74   451.23
                              466.61   496.52   509.01   514.99   530.87
                              595.61   606.23   634.54   653.18   669.74
                              680.06   713.51   723.96   755.87   766.80
                              780.67   821.00   825.09   839.30   879.07
                              889.01   913.37   978.54   985.85   991.50
                             1025.03  1042.61  1063.31  1189.84  1225.21
                             1232.45  1253.61  1285.84  1328.77  1358.56
                             1369.52  1390.17  1423.63  1436.09  1465.29
                             1479.82  1505.75  1524.88  1585.40  1626.76
                             1632.17  1640.66  1647.57  1649.99  1663.30
                             1686.69  1695.64  1702.09  1709.46  1712.17
                             1715.71  1719.13  1724.85  1728.61  1740.92
                             1745.67  1756.93  1759.96  1774.57  1783.49
                             1790.93  1791.65  1796.83  1832.93  1876.49
                             1886.14  1892.08  1940.08  1945.28  1947.25
                             1982.83  1984.85  2007.79  2011.99  2017.45
                             2027.05  2046.42  2062.73  2070.63  2088.42
                             2145.28  2155.77  2158.41  2163.39  2164.05
                             2174.51  2174.90  2176.73  2178.44  2183.47
                             2189.97  2202.75  2212.86  2213.54  2215.46
                             2411.36  2442.09  4363.90  4382.20  4382.32
                             4383.84  4389.31  4404.75  4408.32  4418.72
                             4439.58  4478.22  4493.84  4501.02  4502.70
                             4532.76  4560.39  4565.12  4565.53  4566.77
                             4581.95  4697.56  4700.06  4706.93

 Zero-point correction=                           0.415039 (Hartree/Particle)
 Thermal correction to Energy=                    0.448689
 Thermal correction to Enthalpy=                  0.449633
 Thermal correction to Gibbs Free Energy=         0.344356
 Sum of electronic and zero-point Energies=          -2296.577573
 Sum of electronic and thermal Energies=             -2296.543924
 Sum of electronic and thermal Enthalpies=           -2296.542979
 Sum of electronic and thermal Free Energies=        -2296.648256

                     E (Thermal)             CV                S
                      KCal/Mol        Cal/Mol-Kelvin    Cal/Mol-Kelvin
 Total                  281.556            120.143            221.573
 Electronic               0.000              0.000              0.000
 Translational            0.889              2.981             44.587
 Rotational               0.889              2.981             37.109
 Vibrational            279.779            114.181            139.878
 Vibration     1          0.593              1.987              7.439
 Vibration     2          0.593              1.986              7.096
 Vibration     3          0.593              1.986              6.611
 Vibration     4          0.593              1.985              6.468
 Vibration     5          0.594              1.983              5.594
 Vibration     6          0.594              1.982              5.368
 Vibration     7          0.595              1.980              5.076
 Vibration     8          0.596              1.976              4.701
 Vibration     9          0.596              1.975              4.599
 Vibration    10          0.597              1.973              4.408
 Vibration    11          0.598              1.968              4.125
 Vibration    12          0.600              1.964              3.930
 Vibration    13          0.601              1.960              3.788
 Vibration    14          0.604              1.950              3.474
 Vibration    15          0.604              1.949              3.446
 Vibration    16          0.605              1.944              3.342
 Vibration    17          0.608              1.936              3.161
 Vibration    18          0.618              1.902              2.670
 Vibration    19          0.619              1.898              2.624
 Vibration    20          0.622              1.891              2.547
 Vibration    21          0.624              1.882              2.464
 Vibration    22          0.628              1.871              2.361
 Vibration    23          0.631              1.862              2.292
 Vibration    24          0.633              1.854              2.229
 Vibration    25          0.635              1.847              2.182
 Vibration    26          0.650              1.803              1.917
 Vibration    27          0.655              1.786              1.837
 Vibration    28          0.660              1.771              1.766
 Vibration    29          0.665              1.756              1.703
 Vibration    30          0.668              1.746              1.662
 Vibration    31          0.682              1.706              1.517
 Vibration    32          0.684              1.698              1.491
 Vibration    33          0.687              1.690              1.465
 Vibration    34          0.689              1.684              1.448
 Vibration    35          0.701              1.648              1.343
 Vibration    36          0.709              1.627              1.288
 Vibration    37          0.723              1.585              1.188
 Vibration    38          0.730              1.567              1.149
 Vibration    39          0.733              1.559              1.131
 Vibration    40          0.741              1.536              1.084
 Vibration    41          0.778              1.440              0.913
 Vibration    42          0.784              1.424              0.887
 Vibration    43          0.801              1.381              0.823
 Vibration    44          0.812              1.352              0.784
 Vibration    45          0.823              1.327              0.750
 Vibration    46          0.830              1.311              0.730
 Vibration    47          0.851              1.259              0.668
 Vibration    48          0.858              1.243              0.650
 Vibration    49          0.880              1.194              0.598
 Vibration    50          0.888              1.177              0.581
 Vibration    51          0.898              1.156              0.560
 Vibration    52          0.927              1.095              0.503
 Vibration    53          0.930              1.089              0.498
 Vibration    54          0.940              1.067              0.479
 Vibration    55          0.970              1.009              0.431
 Vibration    56          0.978              0.994              0.420

                           ! Non-Optimized Parameters !
 Normal termination of Gaussian 16 at Sat Jun 15 09:35:14 2019.
