 Gaussian 16, Revision A.03,
 Gaussian 16:  AS64L-G16RevA.03 25-Dec-2016

 ----------------------------------------------------------------------
 #p opt freq=noraman 6-31g(d) scrf=(solvent=tetrahydrofuran,pcm) pop=no
 ne empiricaldispersion=gd3 m062x extrabasis
 ----------------------------------------------------------------------

 -----
 title
 -----
 Symbolic Z-matrix:
 Charge =  0 Multiplicity = 1

 SCF Done:  E(RM062X) =  -2297.37092480     A.U. after   13 cycles
 SCF Done:  E(RM062X) =  -2297.37092478     A.U. after    6 cycles
 SCF Done:  E(RM062X) =  -2297.37092490     A.U. after    6 cycles
 SCF Done:  E(RM062X) =  -2297.37092484     A.U. after    6 cycles
 Optimization completed.
    -- Stationary point found.
 Normal termination of Gaussian 16 at Sat Jun 15 08:21:46 2019.

 ------------------------------------------------------------------
 #P Geom=AllCheck Guess=TCheck SCRF=Check GenChk RM062X/ChkBas Freq
 ------------------------------------------------------------------

 Structure from the checkpoint file:  "/scratch/users/ekwan/clay_new-glu_gluC6-bisCF3-sm-m062x_d3-custom-pcm_thf/Gau-9937.chk"
 -----
 title
 -----
 Charge =  0 Multiplicity = 1

                         Standard orientation:
 ---------------------------------------------------------------------
 Center     Atomic      Atomic             Coordinates (Angstroms)
 Number     Number       Type             X           Y           Z
 ---------------------------------------------------------------------
      1          6           0        3.352883    0.357015    0.627027
      2          6           0        3.311846   -0.480758   -0.648306
      3          6           0        1.865761   -0.809043   -1.043988
      4          6           0        1.005937    1.094047    0.098572
      5          6           0        2.407924    1.544803    0.500705
      6          1           0        1.803748   -1.290439   -2.021605
      7          1           0        3.721773    0.126947   -1.472882
      8          1           0        3.029112   -0.260150    1.479046
      9          1           0        0.582171    0.481191    0.908138
     10          1           0        2.794047    2.221556   -0.274513
     11          8           0        1.054873    0.311397   -1.104907
     12          8           0        1.387700   -1.744992   -0.045052
     13          8           0        4.090593   -1.627212   -0.450548
     14          8           0        4.649799    0.861082    0.846418
     15          8           0        2.300785    2.211131    1.737032
     16          6           0        0.076352    2.278582   -0.130460
     17          1           0       -0.171829    2.698263    0.847415
     18          1           0       -0.847005    1.921556   -0.609041
     19          8           0        0.645921    3.327911   -0.875413
     20         16           0        0.100006   -2.647195   -0.394501
     21          8           0        0.077606   -3.662543    0.636320
     22          8           0        0.152987   -2.999030   -1.802388
     23          6           0       -1.265397   -1.540629   -0.136494
     24          6           0       -1.729802   -1.347439    1.160003
     25          6           0       -1.808066   -0.875826   -1.228438
     26          6           0       -2.773595   -0.449913    1.356191
     27          1           0       -1.287278   -1.884986    1.992838
     28          6           0       -2.853267    0.013428   -1.001976
     29          1           0       -1.424408   -1.049725   -2.228581
     30          6           0       -3.338031    0.234109    0.283235
     31          1           0       -4.150283    0.934591    0.448355
     32          6           0        4.293831   -2.401717   -1.619158
     33          1           0        3.384454   -2.943000   -1.908439
     34          1           0        4.621690   -1.770786   -2.455329
     35          1           0        5.073887   -3.126623   -1.385750
     36          6           0        5.420616    0.106105    1.764208
     37          1           0        6.387036    0.606263    1.848031
     38          1           0        4.940154    0.086996    2.750960
     39          1           0        5.566934   -0.919394    1.412689
     40          6           0        2.945858    3.472715    1.760272
     41          1           0        2.791247    3.888580    2.757428
     42          1           0        4.019078    3.365008    1.570813
     43          1           0        2.505811    4.143952    1.012593
     44          6           0        0.777221    3.053200   -2.258231
     45          1           0        0.967330    4.006446   -2.754679
     46          1           0       -0.145958    2.612666   -2.656522
     47          1           0        1.607109    2.366919   -2.461456
     48          6           0       -3.340824   -0.249207    2.736607
     49          9           0       -2.445411   -0.549594    3.683458
     50          9           0       -4.414042   -1.024889    2.938292
     51          9           0       -3.729298    1.018546    2.920938
     52          6           0       -3.406822    0.805051   -2.155812
     53          9           0       -2.711779    1.941716   -2.337671
     54          9           0       -4.680956    1.152011   -1.950035
     55          9           0       -3.341357    0.116678   -3.299750
 ---------------------------------------------------------------------

 SCF Done:  E(RM062X) =  -2297.37092484     A.U. after    1 cycles

 Isotropic polarizability for W=    0.000000      273.98 Bohr**3.
 End of Minotr F.D. properties file   721 does not exist.

                      1                      2                      3
                      A                      A                      A
 Frequencies --     17.9135                20.4832                27.6852
 Red. masses --      8.9537                 6.4691                16.4892
 Frc consts  --      0.0017                 0.0016                 0.0074
 IR Inten    --      0.1421                 0.2224                 0.0638

                      4                      5                      6
                      A                      A                      A
 Frequencies --     34.4203                37.6604                42.1226
 Red. masses --     10.0066                 4.7910                 3.3809
 Frc consts  --      0.0070                 0.0040                 0.0035
 IR Inten    --      0.2657                 0.7915                 3.2575

                      7                      8                      9
                      A                      A                      A
 Frequencies --     53.0768                56.6026                60.2582
 Red. masses --      5.0934                 4.2536                 3.8446
 Frc consts  --      0.0085                 0.0080                 0.0082
 IR Inten    --      1.2833                 2.0602                 3.6447

                     10                     11                     12
                      A                      A                      A
 Frequencies --     67.2813                72.3397                84.3157
 Red. masses --      3.3657                 3.0966                 3.6782
 Frc consts  --      0.0090                 0.0095                 0.0154
 IR Inten    --      0.8094                 4.7905                 2.8047

                     13                     14                     15
                      A                      A                      A
 Frequencies --     98.8123               102.7209               105.9796
 Red. masses --      4.9638                13.1838                 7.0929
 Frc consts  --      0.0286                 0.0820                 0.0469
 IR Inten    --      2.8214                 3.5727                 2.1270

                     16                     17                     18
                      A                      A                      A
 Frequencies --    116.9104               134.3220               157.1642
 Red. masses --      6.9578                 2.3249                 7.4799
 Frc consts  --      0.0560                 0.0247                 0.1089
 IR Inten    --      0.8695                 4.2616                 0.4217

                     19                     20                     21
                      A                      A                      A
 Frequencies --    161.9255               174.1430               178.4872
 Red. masses --      1.3831                 4.5296                 2.5859
 Frc consts  --      0.0214                 0.0809                 0.0485
 IR Inten    --      0.4794                 0.9728                 1.5261

                     22                     23                     24
                      A                      A                      A
 Frequencies --    184.1216               194.6678               207.7044
 Red. masses --      1.6411                 2.2285                 3.5445
 Frc consts  --      0.0328                 0.0498                 0.0901
 IR Inten    --      0.9308                 2.1267                11.6323

                     25                     26                     27
                      A                      A                      A
 Frequencies --    222.2907               238.5747               240.2222
 Red. masses --      1.6806                 5.1825                 1.8870
 Frc consts  --      0.0489                 0.1738                 0.0642
 IR Inten    --      0.4355                 0.2580                 5.0935

                     28                     29                     30
                      A                      A                      A
 Frequencies --    250.1108               260.0140               275.0307
 Red. masses --      3.6789                 7.3813                 3.2833
 Frc consts  --      0.1356                 0.2940                 0.1463
 IR Inten    --      4.5060                 5.9392                10.7382

                     31                     32                     33
                      A                      A                      A
 Frequencies --    285.8137               293.4425               297.2118
 Red. masses --     11.2326                 4.6959                 9.4865
 Frc consts  --      0.5406                 0.2382                 0.4937
 IR Inten    --      3.6225                12.4366                 3.1824

                     34                     35                     36
                      A                      A                      A
 Frequencies --    300.5639               317.6704               334.8219
 Red. masses --      6.7382                 5.3286                 4.1056
 Frc consts  --      0.3586                 0.3168                 0.2712
 IR Inten    --     13.9912                 0.2720                 2.7834

                     37                     38                     39
                      A                      A                      A
 Frequencies --    349.8495               360.9165               367.3030
 Red. masses --      7.5288                 5.7583                 4.9987
 Frc consts  --      0.5429                 0.4419                 0.3973
 IR Inten    --      1.9013                 3.3782                 6.7944

                     40                     41                     42
                      A                      A                      A
 Frequencies --    377.8155               418.4675               429.3686
 Red. masses --      8.8783                10.1700                 9.3240
 Frc consts  --      0.7467                 1.0493                 1.0128
 IR Inten    --     17.1960                16.9740                 7.5660

                     43                     44                     45
                      A                      A                      A
 Frequencies --    438.1082               462.5947               474.9545
 Red. masses --      2.2019                 5.9469                 8.7809
 Frc consts  --      0.2490                 0.7498                 1.1671
 IR Inten    --      9.9368                 8.8312                25.1908

                     46                     47                     48
                      A                      A                      A
 Frequencies --    484.0091               500.8870               507.0679
 Red. masses --      3.9201                 7.7112                11.9476
 Frc consts  --      0.5411                 1.1399                 1.8099
 IR Inten    --      8.5364                13.7127                 0.8253

                     49                     50                     51
                      A                      A                      A
 Frequencies --    533.6071               540.1122               553.4640
 Red. masses --      6.2927                 5.7777                 5.4734
 Frc consts  --      1.0557                 0.9931                 0.9878
 IR Inten    --     56.7568                20.8358                15.6454

                     52                     53                     54
                      A                      A                      A
 Frequencies --    578.6350               580.8466               592.0426
 Red. masses --      6.0088                 6.2547                 9.0010
 Frc consts  --      1.1853                 1.2433                 1.8589
 IR Inten    --     48.7380                24.0714               233.7771

                     55                     56                     57
                      A                      A                      A
 Frequencies --    618.4614               623.0418               661.3641
 Red. masses --      6.5174                 8.1431                 5.6187
 Frc consts  --      1.4688                 1.8624                 1.4480
 IR Inten    --     32.8773                 4.7037                12.1508

                     58                     59                     60
                      A                      A                      A
 Frequencies --    688.1346               689.2070               698.2915
 Red. masses --      8.1119                12.0292                 5.6192
 Frc consts  --      2.2632                 3.3666                 1.6144
 IR Inten    --      5.3951                59.4272                27.5101

                     61                     62                     63
                      A                      A                      A
 Frequencies --    716.6185               732.6403               756.4284
 Red. masses --      2.4586                10.2733                 5.2308
 Frc consts  --      0.7439                 3.2489                 1.7634
 IR Inten    --     36.6247                 1.1100                36.1820

                     64                     65                     66
                      A                      A                      A
 Frequencies --    840.5068               862.3798               878.1151
 Red. masses --      5.8230                 4.4630                 6.9703
 Frc consts  --      2.4237                 1.9556                 3.1667
 IR Inten    --    128.7472                 6.3363               410.4856

                     67                     68                     69
                      A                      A                      A
 Frequencies --    883.0490               918.9611               936.1854
 Red. masses --     11.9274                 4.2832                 1.6404
 Frc consts  --      5.4798                 2.1311                 0.8471
 IR Inten    --     18.5317               172.7495                69.5098

                     70                     71                     72
                      A                      A                      A
 Frequencies --    958.4238               962.6804               970.4002
 Red. masses --      2.5039                 1.4321                 1.3715
 Frc consts  --      1.3552                 0.7820                 0.7609
 IR Inten    --     25.6723                 0.7735                 5.0019

                     73                     74                     75
                      A                      A                      A
 Frequencies --   1005.1766              1010.4559              1017.1042
 Red. masses --      4.6919                 3.8012                 6.3475
 Frc consts  --      2.7931                 2.2867                 3.8689
 IR Inten    --     58.9387                23.9477                 2.1676

                     76                     77                     78
                      A                      A                      A
 Frequencies --   1047.3431              1058.8953              1075.0874
 Red. masses --      3.9652                 3.4421                 3.7637
 Frc consts  --      2.5627                 2.2739                 2.5630
 IR Inten    --     53.9774                10.0989               136.1880

                     79                     80                     81
                      A                      A                      A
 Frequencies --   1114.5509              1142.8315              1143.4113
 Red. masses --      2.7356                 2.4823                 2.6810
 Frc consts  --      2.0022                 1.9101                 2.0651
 IR Inten    --     16.8969                45.5208                 8.9424

                     82                     83                     84
                      A                      A                      A
 Frequencies --   1147.4978              1149.2318              1156.1111
 Red. masses --      3.7730                 1.7672                 2.1315
 Frc consts  --      2.9271                 1.3751                 1.6786
 IR Inten    --    118.7323                38.4283                14.6038

                     85                     86                     87
                      A                      A                      A
 Frequencies --   1165.2630              1184.6321              1190.7953
 Red. masses --      2.2724                 5.4298                 1.3567
 Frc consts  --      1.8180                 4.4895                 1.1335
 IR Inten    --    185.4908               385.1410                41.4439

                     88                     89                     90
                      A                      A                      A
 Frequencies --   1192.9027              1193.1611              1195.7515
 Red. masses --      1.3272                 1.3383                 1.9790
 Frc consts  --      1.1127                 1.1225                 1.6672
 IR Inten    --      3.3245                 8.4937                50.6310

                     91                     92                     93
                      A                      A                      A
 Frequencies --   1196.7897              1200.8809              1209.3214
 Red. masses --      1.7891                 1.7756                 1.6270
 Frc consts  --      1.5098                 1.5087                 1.4019
 IR Inten    --    112.3226               160.2838                48.5276

                     94                     95                     96
                      A                      A                      A
 Frequencies --   1221.2488              1232.9705              1239.1001
 Red. masses --      2.6207                 2.4260                 9.1475
 Frc consts  --      2.3029                 2.1729                 8.2749
 IR Inten    --     83.6249               223.0463               437.1286

                     97                     98                     99
                      A                      A                      A
 Frequencies --   1240.5016              1244.1031              1254.7267
 Red. masses --      2.9404                 2.1282                12.6408
 Frc consts  --      2.6659                 1.9408                11.7252
 IR Inten    --     88.0332               138.4203               341.0404

                    100                    101                    102
                      A                      A                      A
 Frequencies --   1257.3115              1264.7364              1267.4730
 Red. masses --      2.1489                 2.7392                 5.4856
 Frc consts  --      2.0014                 2.5815                 5.1922
 IR Inten    --     23.8104                75.3817                77.6011

                    103                    104                    105
                      A                      A                      A
 Frequencies --   1278.0928              1283.8650              1304.5187
 Red. masses --      7.8606                 1.9124                 1.6064
 Frc consts  --      7.5654                 1.8572                 1.6107
 IR Inten    --    351.6899                17.9324                11.8290

                    106                    107                    108
                      A                      A                      A
 Frequencies --   1313.7051              1326.9918              1350.4996
 Red. masses --      1.5225                 3.8220                 1.2224
 Frc consts  --      1.5481                 3.9653                 1.3136
 IR Inten    --     10.5887               816.9491                15.4613

                    109                    110                    111
                      A                      A                      A
 Frequencies --   1361.2981              1362.2276              1376.4558
 Red. masses --      1.7243                 4.9735                 4.9879
 Frc consts  --      1.8827                 5.4377                 5.5679
 IR Inten    --     45.8983               262.4442                64.5735

                    112                    113                    114
                      A                      A                      A
 Frequencies --   1382.3742              1384.8309              1403.1538
 Red. masses --      1.2681                 1.2818                 1.3231
 Frc consts  --      1.4277                 1.4483                 1.5349
 IR Inten    --     14.1591                25.6419                 4.1086

                    115                    116                    117
                      A                      A                      A
 Frequencies --   1415.5027              1417.0629              1425.3955
 Red. masses --      5.0257                 1.5569                 1.3349
 Frc consts  --      5.9329                 1.8420                 1.5980
 IR Inten    --    184.5110                30.0059                 4.7145

                    118                    119                    120
                      A                      A                      A
 Frequencies --   1442.2960              1446.1367              1459.5600
 Red. masses --      1.5789                 1.3905                 1.4627
 Frc consts  --      1.9351                 1.7133                 1.8359
 IR Inten    --     26.2889                25.4551                10.8551

                    121                    122                    123
                      A                      A                      A
 Frequencies --   1490.8085              1500.0027              1502.4819
 Red. masses --      1.0853                 1.2014                 1.1815
 Frc consts  --      1.4212                 1.5927                 1.5715
 IR Inten    --      2.1929                 0.7583                 1.8387

                    124                    125                    126
                      A                      A                      A
 Frequencies --   1505.2031              1512.7558              1513.4815
 Red. masses --      1.1443                 1.1867                 3.3584
 Frc consts  --      1.5275                 1.6000                 4.5325
 IR Inten    --      5.0927                13.4739                 0.6646

                    127                    128                    129
                      A                      A                      A
 Frequencies --   1514.9232              1516.0992              1521.7774
 Red. masses --      1.0487                 1.0541                 1.0870
 Frc consts  --      1.4181                 1.4275                 1.4832
 IR Inten    --      2.1919                 1.4175                 7.5365

                    130                    131                    132
                      A                      A                      A
 Frequencies --   1525.4446              1525.8243              1535.7998
 Red. masses --      3.4676                 1.2143                 1.0532
 Frc consts  --      4.7542                 1.6656                 1.4636
 IR Inten    --      0.2077                 1.3844                17.1828

                    133                    134                    135
                      A                      A                      A
 Frequencies --   1536.3304              1537.6985              1538.9852
 Red. masses --      1.0487                 1.0488                 1.0507
 Frc consts  --      1.4584                 1.4612                 1.4662
 IR Inten    --      2.3998                 9.1644                 5.6016

                    136                    137                    138
                      A                      A                      A
 Frequencies --   1690.5160              1710.9912              3032.6227
 Red. masses --      6.9106                 6.6273                 1.0825
 Frc consts  --     11.6361                11.4309                 5.8657
 IR Inten    --     25.1480                31.2952                27.7483

                    139                    140                    141
                      A                      A                      A
 Frequencies --   3056.7224              3057.6580              3063.6482
 Red. masses --      1.0354                 1.0789                 1.0423
 Frc consts  --      5.7001                 5.9429                 5.7640
 IR Inten    --     51.9375                21.4006                26.6717

                    142                    143                    144
                      A                      A                      A
 Frequencies --   3064.1600              3065.1798              3067.3293
 Red. masses --      1.0414                 1.0404                 1.0672
 Frc consts  --      5.7611                 5.7590                 5.9161
 IR Inten    --     86.2518                21.9838                24.1765

                    145                    146                    147
                      A                      A                      A
 Frequencies --   3079.7308              3083.9760              3120.2295
 Red. masses --      1.0680                 1.0827                 1.1062
 Frc consts  --      5.9685                 6.0669                 6.3451
 IR Inten    --     26.7039                75.5896                52.6964

                    148                    149                    150
                      A                      A                      A
 Frequencies --   3130.5756              3138.9289              3143.5353
 Red. masses --      1.1040                 1.1050                 1.0974
 Frc consts  --      6.3751                 6.4147                 6.3895
 IR Inten    --     44.3424                39.7841                42.0820

                    151                    152                    153
                      A                      A                      A
 Frequencies --   3162.3242              3174.9974              3179.6121
 Red. masses --      1.0990                 1.0881                 1.1029
 Frc consts  --      6.4751                 6.4627                 6.5695
 IR Inten    --     15.5391                10.5919                42.5829

                    154                    155                    156
                      A                      A                      A
 Frequencies --   3183.0972              3186.1175              3193.3278
 Red. masses --      1.1034                 1.1048                 1.1001
 Frc consts  --      6.5870                 6.6079                 6.6096
 IR Inten    --     34.4522                31.8202                25.2928

                    157                    158                    159
                      A                      A                      A
 Frequencies --   3254.6344              3256.9421              3258.9418
 Red. masses --      1.0930                 1.0927                 1.0929
 Frc consts  --      6.8217                 6.8292                 6.8392
 IR Inten    --     10.2667                 3.4747                11.4689

 - Thermochemistry -
 -------------------
 Temperature   298.150 Kelvin.  Pressure   1.00000 Atm.
 Atom     1 has atomic number  6 and mass  12.00000

 Molecular mass:   512.09396 amu.
 Principal axes and moments of inertia in atomic units:
                           1         2         3
     Eigenvalues --  ******************************
           X            0.99995   0.00617   0.00824
           Y           -0.00763   0.98147   0.19144
           Z           -0.00691  -0.19149   0.98147
 This molecule is an asymmetric top.
 Rotational symmetry number  1.
 Warning -- assumption of classical behavior for rotation
           may cause significant error
 Rotational temperatures (Kelvin)      0.00729     0.00412     0.00404
 Rotational constants (GHZ):           0.15186     0.08594     0.08427
 Zero-point vibrational energy    1097804.5 (Joules/Mol)
                                  262.38156 (Kcal/Mol)
 Warning -- explicit consideration of  55 degrees of freedom as
           vibrations may cause significant error
 Vibrational temperatures:     25.77    29.47    39.83    49.52    54.18
          (Kelvin)             60.61    76.37    81.44    86.70    96.80
                              104.08   121.31   142.17   147.79   152.48
                              168.21   193.26   226.12   232.97   250.55
                              256.80   264.91   280.08   298.84   319.83
                              343.26   345.63   359.85   374.10   395.71
                              411.22   422.20   427.62   432.44   457.06
                              481.73   503.36   519.28   528.47   543.59
                              602.08   617.77   630.34   665.57   683.35
                              696.38   720.66   729.56   767.74   777.10
                              796.31   832.53   835.71   851.82   889.83
                              896.42   951.56   990.07   991.62  1004.69
                             1031.05  1054.11  1088.33  1209.30  1240.77
                             1263.41  1270.51  1322.18  1346.96  1378.96
                             1385.08  1396.19  1446.22  1453.82  1463.39
                             1506.89  1523.51  1546.81  1603.59  1644.28
                             1645.11  1650.99  1653.49  1663.39  1676.55
                             1704.42  1713.29  1716.32  1716.69  1720.42
                             1721.91  1727.80  1739.94  1757.10  1773.97
                             1782.79  1784.81  1789.99  1805.27  1808.99
                             1819.67  1823.61  1838.89  1847.20  1876.91
                             1890.13  1909.25  1943.07  1958.60  1959.94
                             1980.41  1988.93  1992.46  2018.83  2036.59
                             2038.84  2050.83  2075.14  2080.67  2099.98
                             2144.94  2158.17  2161.74  2165.65  2176.52
                             2177.56  2179.64  2181.33  2189.50  2194.77
                             2195.32  2209.67  2210.44  2212.41  2214.26
                             2432.28  2461.73  4363.27  4397.94  4399.29
                             4407.91  4408.64  4410.11  4413.20  4431.05
                             4437.15  4489.31  4504.20  4516.22  4522.85
                             4549.88  4568.11  4574.75  4579.77  4584.11
                             4594.49  4682.69  4686.01  4688.89

 Zero-point correction=                           0.418132 (Hartree/Particle)
 Thermal correction to Energy=                    0.451061
 Thermal correction to Enthalpy=                  0.452005
 Thermal correction to Gibbs Free Energy=         0.350251
 Sum of electronic and zero-point Energies=          -2296.952793
 Sum of electronic and thermal Energies=             -2296.919864
 Sum of electronic and thermal Enthalpies=           -2296.918920
 Sum of electronic and thermal Free Energies=        -2297.020674

                     E (Thermal)             CV                S
                      KCal/Mol        Cal/Mol-Kelvin    Cal/Mol-Kelvin
 Total                  283.045            118.830            214.160
 Electronic               0.000              0.000              0.000
 Translational            0.889              2.981             44.587
 Rotational               0.889              2.981             36.923
 Vibrational            281.267            112.868            132.650
 Vibration     1          0.593              1.986              6.853
 Vibration     2          0.593              1.986              6.587
 Vibration     3          0.593              1.984              5.989
 Vibration     4          0.594              1.983              5.557
 Vibration     5          0.594              1.982              5.379
 Vibration     6          0.595              1.980              5.157
 Vibration     7          0.596              1.976              4.699
 Vibration     8          0.596              1.975              4.572
 Vibration     9          0.597              1.973              4.449
 Vibration    10          0.598              1.970              4.231
 Vibration    11          0.598              1.967              4.089
 Vibration    12          0.601              1.960              3.788
 Vibration    13          0.604              1.950              3.478
 Vibration    14          0.605              1.947              3.402
 Vibration    15          0.605              1.944              3.341
 Vibration    16          0.608              1.935              3.151
 Vibration    17          0.613              1.919              2.883
 Vibration    18          0.621              1.895              2.584
 Vibration    19          0.622              1.889              2.527
 Vibration    20          0.627              1.874              2.390
 Vibration    21          0.629              1.869              2.344
 Vibration    22          0.631              1.861              2.286
 Vibration    23          0.635              1.847              2.183
 Vibration    24          0.641              1.829              2.064
 Vibration    25          0.648              1.807              1.940
 Vibration    26          0.657              1.782              1.813
 Vibration    27          0.657              1.779              1.801
 Vibration    28          0.663              1.763              1.730
 Vibration    29          0.668              1.746              1.662
 Vibration    30          0.677              1.720              1.564
 Vibration    31          0.684              1.700              1.499
 Vibration    32          0.688              1.686              1.454
 Vibration    33          0.691              1.679              1.433
 Vibration    34          0.693              1.673              1.414
 Vibration    35          0.704              1.640              1.322
 Vibration    36          0.716              1.606              1.237
 Vibration    37          0.727              1.576              1.167
 Vibration    38          0.735              1.553              1.118
 Vibration    39          0.740              1.539              1.091
 Vibration    40          0.748              1.517              1.048
 Vibration    41          0.781              1.430              0.897
 Vibration    42          0.791              1.406              0.861
 Vibration    43          0.798              1.387              0.833
 Vibration    44          0.820              1.333              0.759
 Vibration    45          0.832              1.306              0.724
 Vibration    46          0.840              1.286              0.699
 Vibration    47          0.856              1.248              0.656
 Vibration    48          0.862              1.234              0.641
 Vibration    49          0.889              1.176              0.579
 Vibration    50          0.895              1.161              0.565
 Vibration    51          0.909              1.132              0.537
 Vibration    52          0.935              1.077              0.488
 Vibration    53          0.938              1.073              0.484
 Vibration    54          0.950              1.049              0.464
 Vibration    55          0.978              0.993              0.419

                           ! Non-Optimized Parameters !
 Normal termination of Gaussian 16 at Sat Jun 15 09:34:48 2019.
