 Gaussian 16, Revision A.03,
 Gaussian 16:  AS64L-G16RevA.03 25-Dec-2016

 ----------------------------------------------------------------------
 #p opt freq=noraman pop=none 6-31g* scrf=(pcm,solvent=tetrahydrofuran)
  m062x extrabasis
 ----------------------------------------------------------------------

 -----
 title
 -----
 Symbolic Z-matrix:
 Charge =  0 Multiplicity = 1

 SCF Done:  E(RM062X) =  -2297.36502718     A.U. after   13 cycles
 SCF Done:  E(RM062X) =  -2297.36502678     A.U. after    7 cycles
 SCF Done:  E(RM062X) =  -2297.36502720     A.U. after    7 cycles
 Optimization completed.
    -- Stationary point found.
 Normal termination of Gaussian 16 at Sat Jun 15 08:17:36 2019.

 ------------------------------------------------------------------
 #P Geom=AllCheck Guess=TCheck SCRF=Check GenChk RM062X/ChkBas Freq
 ------------------------------------------------------------------

 Structure from the checkpoint file:  "/scratch/users/ekwan/clay_new-glu_gluC6-bisCF3-sm-m062x-custom-pcm_thf/Gau-37123.chk"
 -----
 title
 -----
 Charge =  0 Multiplicity = 1

                         Standard orientation:
 ---------------------------------------------------------------------
 Center     Atomic      Atomic             Coordinates (Angstroms)
 Number     Number       Type             X           Y           Z
 ---------------------------------------------------------------------
      1          6           0        3.354804    0.306028    0.657676
      2          6           0        3.321133   -0.447828   -0.669174
      3          6           0        1.877028   -0.740080   -1.099343
      4          6           0        1.017401    1.090227    0.157461
      5          6           0        2.418178    1.505577    0.600015
      6          1           0        1.822338   -1.155207   -2.107254
      7          1           0        3.742717    0.209016   -1.449033
      8          1           0        3.018903   -0.362267    1.465179
      9          1           0        0.582821    0.428730    0.921777
     10          1           0        2.814653    2.229186   -0.126202
     11          8           0        1.072798    0.386760   -1.093852
     12          8           0        1.382938   -1.737086   -0.169642
     13          8           0        4.091080   -1.609826   -0.538118
     14          8           0        4.653043    0.785281    0.921428
     15          8           0        2.302141    2.091421    1.875772
     16          6           0        0.096251    2.292691   -0.001973
     17          1           0       -0.155625    2.650759    0.999117
     18          1           0       -0.826097    1.972620   -0.507743
     19          8           0        0.676930    3.383651   -0.675070
     20         16           0        0.089982   -2.600981   -0.589530
     21          8           0        0.059514   -3.694298    0.358015
     22          8           0        0.142382   -2.842090   -2.020580
     23          6           0       -1.270958   -1.511716   -0.246525
     24          6           0       -1.738870   -1.422501    1.059909
     25          6           0       -1.812453   -0.763411   -1.283817
     26          6           0       -2.784278   -0.544448    1.324453
     27          1           0       -1.298711   -2.025116    1.848390
     28          6           0       -2.860248    0.102949   -0.989994
     29          1           0       -1.427139   -0.857705   -2.293986
     30          6           0       -3.347831    0.221052    0.307634
     31          1           0       -4.162037    0.904517    0.525332
     32          6           0        4.304884   -2.307572   -1.752298
     33          1           0        3.395548   -2.820530   -2.089423
     34          1           0        4.650472   -1.626350   -2.540415
     35          1           0        5.075389   -3.053430   -1.556042
     36          6           0        5.409249   -0.033266    1.795996
     37          1           0        6.377846    0.453609    1.922194
     38          1           0        4.918057   -0.113025    2.774367
     39          1           0        5.552816   -1.034805    1.380075
     40          6           0        2.979303    3.330527    1.995522
     41          1           0        2.815704    3.683108    3.015359
     42          1           0        4.052728    3.206506    1.818154
     43          1           0        2.571070    4.061915    1.287062
     44          6           0        0.808561    3.199560   -2.072772
     45          1           0        1.009983    4.181475   -2.504835
     46          1           0       -0.118685    2.796608   -2.500693
     47          1           0        1.631426    2.519209   -2.319553
     48          6           0       -3.353142   -0.459652    2.716349
     49          9           0       -2.439265   -0.781062    3.638769
     50          9           0       -4.388195   -1.295751    2.870054
     51          9           0       -3.796904    0.774109    2.985368
     52          6           0       -3.417321    0.976355   -2.081695
     53          9           0       -2.710700    2.114435   -2.197577
     54          9           0       -4.684830    1.323041   -1.838183
     55          9           0       -3.373510    0.364049   -3.269266
 ---------------------------------------------------------------------

 SCF Done:  E(RM062X) =  -2297.36502720     A.U. after    1 cycles

 Isotropic polarizability for W=    0.000000      274.08 Bohr**3.
 End of Minotr F.D. properties file   721 does not exist.

                      1                      2                      3
                      A                      A                      A
 Frequencies --     17.2931                21.3403                27.7112
 Red. masses --      9.3491                 6.7980                17.9478
 Frc consts  --      0.0016                 0.0018                 0.0081
 IR Inten    --      0.1688                 0.3362                 0.0291

                      4                      5                      6
                      A                      A                      A
 Frequencies --     30.6504                40.6694                49.0122
 Red. masses --     12.6741                 5.1810                 6.7467
 Frc consts  --      0.0070                 0.0050                 0.0095
 IR Inten    --      0.0718                 0.3732                 0.1208

                      7                      8                      9
                      A                      A                      A
 Frequencies --     55.5262                61.4552                69.7713
 Red. masses --      4.7381                 3.5913                 3.6733
 Frc consts  --      0.0086                 0.0080                 0.0105
 IR Inten    --      1.4523                 1.2874                 0.7658

                     10                     11                     12
                      A                      A                      A
 Frequencies --     75.3973                81.6519                87.5040
 Red. masses --      3.1297                 2.9810                 2.8339
 Frc consts  --      0.0105                 0.0117                 0.0128
 IR Inten    --      4.4344                 4.2986                 4.7884

                     13                     14                     15
                      A                      A                      A
 Frequencies --     98.3552               102.1380               107.1719
 Red. masses --      4.4623                13.7676                 6.9153
 Frc consts  --      0.0254                 0.0846                 0.0468
 IR Inten    --      3.0570                 3.7930                 2.8024

                     16                     17                     18
                      A                      A                      A
 Frequencies --    116.3463               133.3048               155.5953
 Red. masses --      6.6507                 2.3438                 7.5317
 Frc consts  --      0.0530                 0.0245                 0.1074
 IR Inten    --      0.9890                 4.2143                 0.4043

                     19                     20                     21
                      A                      A                      A
 Frequencies --    161.7216               174.3961               179.0706
 Red. masses --      1.3356                 5.0697                 2.6418
 Frc consts  --      0.0206                 0.0908                 0.0499
 IR Inten    --      0.5703                 1.0565                 1.5920

                     22                     23                     24
                      A                      A                      A
 Frequencies --    184.6282               196.2795               207.3470
 Red. masses --      1.8283                 1.8902                 3.2539
 Frc consts  --      0.0367                 0.0429                 0.0824
 IR Inten    --      0.5866                 2.3168                11.0799

                     25                     26                     27
                      A                      A                      A
 Frequencies --    218.6468               237.1267               240.1306
 Red. masses --      1.6619                 2.1432                 4.9177
 Frc consts  --      0.0468                 0.0710                 0.1671
 IR Inten    --      0.4572                 3.2366                 2.5383

                     28                     29                     30
                      A                      A                      A
 Frequencies --    251.5978               260.3254               273.5741
 Red. masses --      3.5010                 6.6127                 3.5281
 Frc consts  --      0.1306                 0.2640                 0.1556
 IR Inten    --      4.9153                 7.1784                10.4226

                     31                     32                     33
                      A                      A                      A
 Frequencies --    286.1841               293.6191               296.8363
 Red. masses --     11.2884                 5.1582                 8.7358
 Frc consts  --      0.5447                 0.2620                 0.4535
 IR Inten    --      3.7615                11.9223                 3.1695

                     34                     35                     36
                      A                      A                      A
 Frequencies --    300.5156               316.3054               335.3822
 Red. masses --      6.7575                 5.3659                 4.0829
 Frc consts  --      0.3596                 0.3163                 0.2706
 IR Inten    --     13.4126                 0.2750                 3.0554

                     37                     38                     39
                      A                      A                      A
 Frequencies --    350.2727               360.9972               367.6865
 Red. masses --      7.5232                 5.9541                 4.9107
 Frc consts  --      0.5438                 0.4572                 0.3912
 IR Inten    --      1.9471                 3.3919                 6.1553

                     40                     41                     42
                      A                      A                      A
 Frequencies --    377.3713               418.9314               429.0729
 Red. masses --      8.7887                10.1649                 9.2110
 Frc consts  --      0.7374                 1.0511                 0.9991
 IR Inten    --     17.1366                16.6604                 7.5561

                     43                     44                     45
                      A                      A                      A
 Frequencies --    437.8890               462.3486               474.9453
 Red. masses --      2.1910                 5.9645                 8.7569
 Frc consts  --      0.2475                 0.7512                 1.1638
 IR Inten    --      9.8253                 8.4899                24.3501

                     46                     47                     48
                      A                      A                      A
 Frequencies --    484.3365               500.0901               507.2684
 Red. masses --      4.0043                 7.4904                11.9776
 Frc consts  --      0.5534                 1.1037                 1.8159
 IR Inten    --     10.1718                12.6862                 0.7892

                     49                     50                     51
                      A                      A                      A
 Frequencies --    533.3496               539.2935               553.1252
 Red. masses --      5.9032                 6.0083                 5.5034
 Frc consts  --      0.9894                 1.0296                 0.9920
 IR Inten    --     54.6746                24.8214                14.2790

                     52                     53                     54
                      A                      A                      A
 Frequencies --    578.3588               580.3840               591.9379
 Red. masses --      5.6415                 6.7009                 9.1413
 Frc consts  --      1.1118                 1.3299                 1.8872
 IR Inten    --     48.1372                20.1285               241.4238

                     55                     56                     57
                      A                      A                      A
 Frequencies --    617.4811               622.8832               660.9990
 Red. masses --      6.5276                 8.1801                 5.6077
 Frc consts  --      1.4664                 1.8699                 1.4436
 IR Inten    --     34.6225                 4.1517                11.3841

                     58                     59                     60
                      A                      A                      A
 Frequencies --    687.8515               689.2453               698.6010
 Red. masses --      8.3219                11.4536                 5.5886
 Frc consts  --      2.3199                 3.2058                 1.6070
 IR Inten    --     10.2005                55.0480                27.0009

                     61                     62                     63
                      A                      A                      A
 Frequencies --    716.2488               732.5586               756.0183
 Red. masses --      2.4529                10.2800                 5.2514
 Frc consts  --      0.7414                 3.2503                 1.7684
 IR Inten    --     35.3323                 1.3822                35.4036

                     64                     65                     66
                      A                      A                      A
 Frequencies --    840.3661               862.7238               878.0389
 Red. masses --      5.8711                 4.4610                 6.9376
 Frc consts  --      2.4429                 1.9562                 3.1513
 IR Inten    --    133.3294                 6.5130               407.5200

                     67                     68                     69
                      A                      A                      A
 Frequencies --    882.8258               918.5476               933.5010
 Red. masses --     11.9439                 4.1959                 1.6421
 Frc consts  --      5.4846                 2.0858                 0.8431
 IR Inten    --     18.2807               168.4197                75.0847

                     70                     71                     72
                      A                      A                      A
 Frequencies --    958.0113               960.2836               971.1301
 Red. masses --      2.1486                 1.6002                 1.3720
 Frc consts  --      1.1619                 0.8694                 0.7624
 IR Inten    --     18.3924                 7.9970                 6.2019

                     73                     74                     75
                      A                      A                      A
 Frequencies --   1005.0969              1009.7459              1016.9989
 Red. masses --      4.6857                 3.7859                 6.3507
 Frc consts  --      2.7889                 2.2743                 3.8700
 IR Inten    --     56.6439                25.3641                 2.3073

                     76                     77                     78
                      A                      A                      A
 Frequencies --   1046.6524              1058.5407              1074.6961
 Red. masses --      3.9604                 3.4129                 3.7618
 Frc consts  --      2.5562                 2.2531                 2.5599
 IR Inten    --     52.2715                11.1342               135.9293

                     79                     80                     81
                      A                      A                      A
 Frequencies --   1114.7531              1142.7340              1143.4098
 Red. masses --      2.7469                 2.6647                 2.7664
 Frc consts  --      2.0112                 2.0502                 2.1309
 IR Inten    --     17.3187                52.6677                10.8239

                     82                     83                     84
                      A                      A                      A
 Frequencies --   1147.5674              1150.0572              1156.0291
 Red. masses --      3.3744                 1.7654                 2.1267
 Frc consts  --      2.6182                 1.3758                 1.6745
 IR Inten    --    116.1577                36.1131                11.0516

                     85                     86                     87
                      A                      A                      A
 Frequencies --   1165.7530              1185.4581              1190.4879
 Red. masses --      2.2827                 5.3221                 1.3664
 Frc consts  --      1.8277                 4.4066                 1.1409
 IR Inten    --    194.3675               373.5669                37.6995

                     88                     89                     90
                      A                      A                      A
 Frequencies --   1192.3709              1194.5624              1195.7243
 Red. masses --      1.3762                 1.4465                 2.0481
 Frc consts  --      1.1528                 1.2162                 1.7253
 IR Inten    --     16.0078                16.6213                46.4883

                     91                     92                     93
                      A                      A                      A
 Frequencies --   1196.1962              1201.1882              1207.4538
 Red. masses --      1.4655                 1.8124                 1.6183
 Frc consts  --      1.2355                 1.5408                 1.3901
 IR Inten    --     92.7740               165.4669                48.3852

                     94                     95                     96
                      A                      A                      A
 Frequencies --   1221.4757              1232.0076              1239.5629
 Red. masses --      2.6743                 2.4617                 7.1932
 Frc consts  --      2.3509                 2.2015                 6.5120
 IR Inten    --     82.5639               208.5406               437.7042

                     97                     98                     99
                      A                      A                      A
 Frequencies --   1240.7214              1243.8027              1254.6334
 Red. masses --      3.4810                 2.0218                12.6207
 Frc consts  --      3.1572                 1.8429                11.7048
 IR Inten    --    125.9607               120.7989               337.0065

                    100                    101                    102
                      A                      A                      A
 Frequencies --   1257.1654              1263.9921              1267.1451
 Red. masses --      2.1189                 2.7324                 5.7057
 Frc consts  --      1.9731                 2.5721                 5.3977
 IR Inten    --     25.3194                70.8479                92.5359

                    103                    104                    105
                      A                      A                      A
 Frequencies --   1277.7386              1283.2973              1305.0191
 Red. masses --      7.6742                 1.9193                 1.6122
 Frc consts  --      7.3819                 1.8623                 1.6177
 IR Inten    --    347.6884                18.9281                13.4881

                    106                    107                    108
                      A                      A                      A
 Frequencies --   1313.9971              1326.4280              1347.0927
 Red. masses --      1.5153                 3.7309                 1.2353
 Frc consts  --      1.5415                 3.8675                 1.3207
 IR Inten    --     11.0769               805.9073                17.4474

                    109                    110                    111
                      A                      A                      A
 Frequencies --   1360.0541              1363.0741              1376.7492
 Red. masses --      1.4905                 8.2040                 5.0712
 Frc consts  --      1.6244                 8.9808                 5.6633
 IR Inten    --      3.0723               279.6299                89.0042

                    112                    113                    114
                      A                      A                      A
 Frequencies --   1381.4052              1382.9535              1402.9729
 Red. masses --      1.2644                 1.2964                 1.3095
 Frc consts  --      1.4216                 1.4609                 1.5186
 IR Inten    --     20.1917                21.3987                 5.3734

                    115                    116                    117
                      A                      A                      A
 Frequencies --   1414.7416              1416.4092              1424.2682
 Red. masses --      4.8427                 1.5895                 1.3326
 Frc consts  --      5.7108                 1.8788                 1.5927
 IR Inten    --    183.1305                34.2647                 5.1845

                    118                    119                    120
                      A                      A                      A
 Frequencies --   1441.8985              1444.9140              1457.6450
 Red. masses --      1.5806                 1.3960                 1.4655
 Frc consts  --      1.9361                 1.7172                 1.8347
 IR Inten    --     27.4418                23.6271                11.7409

                    121                    122                    123
                      A                      A                      A
 Frequencies --   1490.2731              1501.1354              1502.8136
 Red. masses --      1.0859                 1.1901                 1.1881
 Frc consts  --      1.4209                 1.5800                 1.5810
 IR Inten    --      2.2443                 1.9569                 0.4407

                    124                    125                    126
                      A                      A                      A
 Frequencies --   1505.6494              1511.9972              1513.9851
 Red. masses --      1.1494                 1.1080                 4.2216
 Frc consts  --      1.5353                 1.4924                 5.7013
 IR Inten    --      5.1162                13.2806                 0.5375

                    127                    128                    129
                      A                      A                      A
 Frequencies --   1515.0498              1517.6974              1521.5804
 Red. masses --      1.0501                 1.0530                 1.0828
 Frc consts  --      1.4201                 1.4290                 1.4771
 IR Inten    --      2.4907                 1.6335                 6.5404

                    130                    131                    132
                      A                      A                      A
 Frequencies --   1522.6209              1524.9030              1535.5301
 Red. masses --      1.1030                 4.7118                 1.0591
 Frc consts  --      1.5066                 6.4554                 1.4713
 IR Inten    --      3.0561                 0.2092                14.2017

                    133                    134                    135
                      A                      A                      A
 Frequencies --   1536.3898              1538.3444              1539.6765
 Red. masses --      1.0477                 1.0494                 1.0506
 Frc consts  --      1.4571                 1.4632                 1.4674
 IR Inten    --      5.2085                 9.2906                 5.6544

                    136                    137                    138
                      A                      A                      A
 Frequencies --   1690.0727              1710.7253              3030.5854
 Red. masses --      6.9070                 6.6171                 1.0826
 Frc consts  --     11.6239                11.4098                 5.8581
 IR Inten    --     25.5099                31.0004                28.5057

                    139                    140                    141
                      A                      A                      A
 Frequencies --   3056.9283              3058.5683              3062.5194
 Red. masses --      1.0350                 1.0767                 1.0476
 Frc consts  --      5.6985                 5.9347                 5.7889
 IR Inten    --     51.4408                22.5305                16.8831

                    142                    143                    144
                      A                      A                      A
 Frequencies --   3064.0677              3064.7389              3066.7316
 Red. masses --      1.0455                 1.0592                 1.0415
 Frc consts  --      5.7830                 5.8618                 5.7709
 IR Inten    --     88.1598                 5.9219                42.9437

                    145                    146                    147
                      A                      A                      A
 Frequencies --   3079.6609              3082.6285              3120.1690
 Red. masses --      1.0702                 1.0800                 1.1062
 Frc consts  --      5.9803                 6.0465                 6.3452
 IR Inten    --     19.0841                84.3390                53.1071

                    148                    149                    150
                      A                      A                      A
 Frequencies --   3129.0494              3139.9592              3143.7727
 Red. masses --      1.1041                 1.1045                 1.0973
 Frc consts  --      6.3694                 6.4162                 6.3899
 IR Inten    --     45.5624                40.5778                42.4329

                    151                    152                    153
                      A                      A                      A
 Frequencies --   3162.3298              3173.1618              3178.6807
 Red. masses --      1.0992                 1.0883                 1.1028
 Frc consts  --      6.4763                 6.4562                 6.5652
 IR Inten    --     15.6279                 9.8699                42.9789

                    154                    155                    156
                      A                      A                      A
 Frequencies --   3184.5681              3185.8621              3192.4592
 Red. masses --      1.1034                 1.1049                 1.1002
 Frc consts  --      6.5932                 6.6072                 6.6066
 IR Inten    --     33.4457                31.8796                25.2828

                    157                    158                    159
                      A                      A                      A
 Frequencies --   3253.8666              3257.9609              3260.3770
 Red. masses --      1.0930                 1.0928                 1.0928
 Frc consts  --      6.8185                 6.8342                 6.8442
 IR Inten    --     10.4511                 4.0025                11.3695

 - Thermochemistry -
 -------------------
 Temperature   298.150 Kelvin.  Pressure   1.00000 Atm.
 Atom     1 has atomic number  6 and mass  12.00000

 Molecular mass:   512.09396 amu.
 Principal axes and moments of inertia in atomic units:
                           1         2         3
     Eigenvalues --  ******************************
           X            0.99995   0.00511   0.00899
           Y           -0.00696   0.97543   0.22020
           Z           -0.00765  -0.22025   0.97541
 This molecule is an asymmetric top.
 Rotational symmetry number  1.
 Warning -- assumption of classical behavior for rotation
           may cause significant error
 Rotational temperatures (Kelvin)      0.00728     0.00411     0.00403
 Rotational constants (GHZ):           0.15173     0.08568     0.08387
 Zero-point vibrational energy    1097832.6 (Joules/Mol)
                                  262.38830 (Kcal/Mol)
 Warning -- explicit consideration of  55 degrees of freedom as
           vibrations may cause significant error
 Vibrational temperatures:     24.88    30.70    39.87    44.10    58.51
          (Kelvin)             70.52    79.89    88.42   100.39   108.48
                              117.48   125.90   141.51   146.95   154.20
                              167.40   191.80   223.87   232.68   250.92
                              257.64   265.64   282.40   298.33   314.58
                              341.17   345.49   361.99   374.55   393.61
                              411.76   422.45   427.08   432.37   455.09
                              482.54   503.96   519.39   529.02   542.95
                              602.75   617.34   630.02   665.22   683.34
                              696.85   719.52   729.85   767.37   775.92
                              795.82   832.13   835.04   851.67   888.42
                              896.19   951.03   989.66   991.67  1005.13
                             1030.52  1053.99  1087.74  1209.10  1241.27
                             1263.30  1270.19  1321.59  1343.10  1378.36
                             1381.63  1397.24  1446.11  1452.80  1463.23
                             1505.90  1523.00  1546.25  1603.88  1644.14
                             1645.11  1651.09  1654.68  1663.27  1677.26
                             1705.61  1712.85  1715.56  1718.71  1720.38
                             1721.06  1728.24  1737.26  1757.43  1772.58
                             1783.45  1785.12  1789.55  1805.14  1808.78
                             1818.60  1823.14  1838.38  1846.38  1877.63
                             1890.55  1908.43  1938.17  1956.81  1961.16
                             1980.84  1987.53  1989.76  2018.57  2035.50
                             2037.90  2049.20  2074.57  2078.91  2097.23
                             2144.17  2159.80  2162.21  2166.29  2175.43
                             2178.29  2179.82  2183.63  2189.21  2190.71
                             2194.00  2209.29  2210.52  2213.33  2215.25
                             2431.64  2461.35  4360.34  4398.24  4400.60
                             4406.28  4408.51  4409.48  4412.34  4430.95
                             4435.21  4489.23  4502.00  4517.70  4523.19
                             4549.89  4565.47  4573.41  4581.88  4583.75
                             4593.24  4681.59  4687.48  4690.96

 Zero-point correction=                           0.418142 (Hartree/Particle)
 Thermal correction to Energy=                    0.450996
 Thermal correction to Enthalpy=                  0.451940
 Thermal correction to Gibbs Free Energy=         0.350771
 Sum of electronic and zero-point Energies=          -2296.946885
 Sum of electronic and thermal Energies=             -2296.914031
 Sum of electronic and thermal Enthalpies=           -2296.913087
 Sum of electronic and thermal Free Energies=        -2297.014256

                     E (Thermal)             CV                S
                      KCal/Mol        Cal/Mol-Kelvin    Cal/Mol-Kelvin
 Total                  283.004            118.840            212.929
 Electronic               0.000              0.000              0.000
 Translational            0.889              2.981             44.587
 Rotational               0.889              2.981             36.931
 Vibrational            281.227            112.879            131.411
 Vibration     1          0.593              1.986              6.923
 Vibration     2          0.593              1.985              6.505
 Vibration     3          0.593              1.984              5.987
 Vibration     4          0.594              1.984              5.787
 Vibration     5          0.594              1.981              5.226
 Vibration     6          0.595              1.978              4.857
 Vibration     7          0.596              1.975              4.610
 Vibration     8          0.597              1.973              4.410
 Vibration     9          0.598              1.969              4.160
 Vibration    10          0.599              1.965              4.007
 Vibration    11          0.600              1.962              3.851
 Vibration    12          0.601              1.958              3.715
 Vibration    13          0.604              1.950              3.487
 Vibration    14          0.604              1.947              3.413
 Vibration    15          0.606              1.943              3.320
 Vibration    16          0.608              1.936              3.160
 Vibration    17          0.613              1.920              2.898
 Vibration    18          0.620              1.896              2.603
 Vibration    19          0.622              1.889              2.530
 Vibration    20          0.627              1.874              2.388
 Vibration    21          0.629              1.868              2.338
 Vibration    22          0.631              1.861              2.281
 Vibration    23          0.636              1.845              2.168
 Vibration    24          0.641              1.829              2.067
 Vibration    25          0.646              1.813              1.970
 Vibration    26          0.656              1.784              1.824
 Vibration    27          0.657              1.779              1.802
 Vibration    28          0.664              1.760              1.719
 Vibration    29          0.668              1.745              1.660
 Vibration    30          0.676              1.722              1.574
 Vibration    31          0.684              1.699              1.496
 Vibration    32          0.688              1.686              1.453
 Vibration    33          0.690              1.680              1.435
 Vibration    34          0.693              1.673              1.414
 Vibration    35          0.703              1.642              1.329
 Vibration    36          0.716              1.605              1.234
 Vibration    37          0.727              1.575              1.165
 Vibration    38          0.735              1.553              1.118
 Vibration    39          0.740              1.539              1.089
 Vibration    40          0.748              1.518              1.050
 Vibration    41          0.782              1.429              0.896
 Vibration    42          0.790              1.407              0.862
 Vibration    43          0.798              1.388              0.833
 Vibration    44          0.820              1.334              0.759
 Vibration    45          0.832              1.306              0.724
 Vibration    46          0.840              1.285              0.698
 Vibration    47          0.856              1.250              0.658
 Vibration    48          0.862              1.234              0.640
 Vibration    49          0.888              1.176              0.580
 Vibration    50          0.894              1.163              0.567
 Vibration    51          0.909              1.133              0.538
 Vibration    52          0.935              1.078              0.488
 Vibration    53          0.937              1.074              0.485
 Vibration    54          0.949              1.049              0.464
 Vibration    55          0.977              0.995              0.421

 Optimization completed.
    -- Stationary point found.
 Normal termination of Gaussian 16 at Sat Jun 15 09:30:41 2019.
