 Gaussian 16, Revision A.03,
 Gaussian 16:  AS64L-G16RevA.03 25-Dec-2016

 ----------------------------------------------------------------------
 #p opt freq=noraman 6-31g(d) scrf=(solvent=tetrahydrofuran,pcm) pop=no
 ne blyp empiricaldispersion=gd3bj extrabasis
 ----------------------------------------------------------------------

 -----
 title
 -----
 Symbolic Z-matrix:
 Charge =  0 Multiplicity = 1

 SCF Done:  E(RB-LYP) =  -2297.73435402     A.U. after   15 cycles
 Optimization completed.
    -- Stationary point found.
 Normal termination of Gaussian 16 at Sat Jun 15 07:56:20 2019.

 -----------------------------------------------------------------
 #P Geom=AllCheck Guess=TCheck SCRF=Check GenChk RBLYP/ChkBas Freq
 -----------------------------------------------------------------

 Structure from the checkpoint file:  "/scratch/users/ekwan/clay_new-glu_gluC6-bisCF3-sm-blyp_d3bj-custom-pcm_thf/Gau-13156.chk"
 -----
 title
 -----
 Charge =  0 Multiplicity = 1

                         Standard orientation:
 ---------------------------------------------------------------------
 Center     Atomic      Atomic             Coordinates (Angstroms)
 Number     Number       Type             X           Y           Z
 ---------------------------------------------------------------------
      1          6           0        3.390165    0.433077    0.603757
      2          6           0        3.342923   -0.503671   -0.621397
      3          6           0        1.883765   -0.883516   -0.985083
      4          6           0        0.991072    1.117680    0.041516
      5          6           0        2.403920    1.601567    0.422641
      6          1           0        1.818050   -1.439018   -1.928163
      7          1           0        3.735055    0.055238   -1.495465
      8          1           0        3.111163   -0.130513    1.512813
      9          1           0        0.557418    0.556715    0.888219
     10          1           0        2.775373    2.259144   -0.381191
     11          8           0        1.042741    0.228461   -1.126267
     12          8           0        1.426148   -1.784325    0.108014
     13          8           0        4.160384   -1.643140   -0.358681
     14          8           0        4.698712    1.006791    0.753571
     15          8           0        2.274479    2.332642    1.654034
     16          6           0        0.044413    2.282305   -0.290133
     17          1           0       -0.169857    2.802833    0.655033
     18          1           0       -0.900178    1.884367   -0.699751
     19          8           0        0.594932    3.275020   -1.164958
     20         16           0        0.093819   -2.748797   -0.199937
     21          8           0        0.079643   -3.703934    0.933347
     22          8           0        0.145310   -3.218221   -1.610226
     23          6           0       -1.294835   -1.600253   -0.019882
     24          6           0       -1.743906   -1.285290    1.269060
     25          6           0       -1.840715   -1.017151   -1.170571
     26          6           0       -2.788145   -0.353927    1.400704
     27          1           0       -1.292927   -1.748847    2.146246
     28          6           0       -2.882247   -0.090429   -1.014036
     29          1           0       -1.461614   -1.273796   -2.158135
     30          6           0       -3.358190    0.244279    0.265659
     31          1           0       -4.163168    0.970717    0.377166
     32          6           0        4.506155   -2.400404   -1.535010
     33          1           0        3.634368   -2.935169   -1.953925
     34          1           0        4.940654   -1.746380   -2.314545
     35          1           0        5.255517   -3.137658   -1.215296
     36          6           0        5.556577    0.292604    1.663528
     37          1           0        6.489295    0.873143    1.722808
     38          1           0        5.103275    0.231697    2.671779
     39          1           0        5.772809   -0.725632    1.301447
     40          6           0        2.934116    3.613185    1.631297
     41          1           0        2.743795    4.074791    2.611776
     42          1           0        4.020959    3.497302    1.480701
     43          1           0        2.517640    4.258410    0.835467
     44          6           0        0.581358    2.900130   -2.557054
     45          1           0        0.835541    3.808741   -3.123107
     46          1           0       -0.421676    2.546571   -2.859877
     47          1           0        1.317216    2.108860   -2.780003
     48          6           0       -3.338983   -0.036754    2.776501
     49          9           0       -2.383021   -0.172007    3.743552
     50          9           0       -4.368857   -0.877718    3.102891
     51          9           0       -3.823278    1.239926    2.840642
     52          6           0       -3.438098    0.629674   -2.224080
     53          9           0       -2.853574    1.869584   -2.367080
     54          9           0       -4.782213    0.840261   -2.112684
     55          9           0       -3.210687   -0.057351   -3.379566
 ---------------------------------------------------------------------

 SCF Done:  E(RB-LYP) =  -2297.73435402     A.U. after    1 cycles

 Isotropic polarizability for W=    0.000000      304.27 Bohr**3.
 End of Minotr F.D. properties file   721 does not exist.

                      1                      2                      3
                      A                      A                      A
 Frequencies --     16.4538                19.0161                19.8838
 Red. masses --      9.9571                 7.2929                12.8661
 Frc consts  --      0.0016                 0.0016                 0.0030
 IR Inten    --      0.1097                 0.2962                 0.1463

                      4                      5                      6
                      A                      A                      A
 Frequencies --     25.6834                35.0830                43.2030
 Red. masses --     12.6352                 4.7309                 5.5563
 Frc consts  --      0.0049                 0.0034                 0.0061
 IR Inten    --      0.0293                 0.4228                 1.0990

                      7                      8                      9
                      A                      A                      A
 Frequencies --     49.9738                52.9351                64.6618
 Red. masses --      3.1997                 4.0159                 3.8124
 Frc consts  --      0.0047                 0.0066                 0.0094
 IR Inten    --      1.0855                 1.2299                 2.8026

                     10                     11                     12
                      A                      A                      A
 Frequencies --     72.8890                77.1282                88.4808
 Red. masses --      3.3509                 3.9044                 2.7908
 Frc consts  --      0.0105                 0.0137                 0.0129
 IR Inten    --      2.7288                 1.5924                 3.9841

                     13                     14                     15
                      A                      A                      A
 Frequencies --     94.4658                97.5044               101.8189
 Red. masses --      3.9107                11.8548                 7.3203
 Frc consts  --      0.0206                 0.0664                 0.0447
 IR Inten    --      3.4907                 4.4918                 3.2619

                     16                     17                     18
                      A                      A                      A
 Frequencies --    112.3255               127.4260               147.1883
 Red. masses --      9.6538                 2.4596                 7.4206
 Frc consts  --      0.0718                 0.0235                 0.0947
 IR Inten    --      0.5151                 3.5924                 0.6131

                     19                     20                     21
                      A                      A                      A
 Frequencies --    152.7430               160.6977               166.8842
 Red. masses --      3.7852                 1.8481                 2.1495
 Frc consts  --      0.0520                 0.0281                 0.0353
 IR Inten    --      2.1891                 0.1690                 1.4433

                     22                     23                     24
                      A                      A                      A
 Frequencies --    178.2339               187.5865               193.1089
 Red. masses --      2.0498                 2.2503                 1.8175
 Frc consts  --      0.0384                 0.0467                 0.0399
 IR Inten    --      0.2221                 6.9330                 4.4965

                     25                     26                     27
                      A                      A                      A
 Frequencies --    205.7461               224.4969               227.7797
 Red. masses --      1.6102                 2.3571                 6.1138
 Frc consts  --      0.0402                 0.0700                 0.1869
 IR Inten    --      1.0561                 6.1604                 2.1841

                     28                     29                     30
                      A                      A                      A
 Frequencies --    237.4534               246.7308               255.8616
 Red. masses --      5.9851                 3.8011                 3.5453
 Frc consts  --      0.1988                 0.1363                 0.1367
 IR Inten    --      2.9426                10.3217                 9.5238

                     31                     32                     33
                      A                      A                      A
 Frequencies --    268.9530               277.1634               282.6842
 Red. masses --      9.9101                 5.9411                11.7192
 Frc consts  --      0.4224                 0.2689                 0.5518
 IR Inten    --      4.3467                17.0923                 2.0866

                     34                     35                     36
                      A                      A                      A
 Frequencies --    284.1459               303.3491               313.9909
 Red. masses --      5.2960                 5.5398                 4.1714
 Frc consts  --      0.2519                 0.3003                 0.2423
 IR Inten    --      6.2010                 0.2318                 4.2598

                     37                     38                     39
                      A                      A                      A
 Frequencies --    329.6551               336.9288               345.5813
 Red. masses --      7.4902                 7.3693                 8.8611
 Frc consts  --      0.4796                 0.4929                 0.6235
 IR Inten    --      1.0140                15.1523                18.4752

                     40                     41                     42
                      A                      A                      A
 Frequencies --    346.8931               393.2407               404.5182
 Red. masses --      4.3058                10.5403                 9.1202
 Frc consts  --      0.3053                 0.9603                 0.8793
 IR Inten    --      5.9029                18.2257                 9.7152

                     43                     44                     45
                      A                      A                      A
 Frequencies --    422.1534               430.9861               439.5839
 Red. masses --      2.2317                 6.1220                 8.7669
 Frc consts  --      0.2343                 0.6700                 0.9981
 IR Inten    --      8.3420                13.7157                33.1910

                     46                     47                     48
                      A                      A                      A
 Frequencies --    452.9125               463.2064               473.0967
 Red. masses --      4.3714                 7.0986                11.9285
 Frc consts  --      0.5283                 0.8974                 1.5730
 IR Inten    --      4.4477                11.9731                 1.4233

                     49                     50                     51
                      A                      A                      A
 Frequencies --    495.2422               501.5151               517.2142
 Red. masses --      8.8798                 7.0501                 4.6461
 Frc consts  --      1.2832                 1.0447                 0.7323
 IR Inten    --     46.2490                 2.6170                65.5762

                     52                     53                     54
                      A                      A                      A
 Frequencies --    537.2771               544.4983               551.1315
 Red. masses --      8.3321                 8.3724                 4.4139
 Frc consts  --      1.4171                 1.4625                 0.7899
 IR Inten    --     78.9919                84.8978                57.2446

                     55                     56                     57
                      A                      A                      A
 Frequencies --    574.4561               584.9836               613.2007
 Red. masses --      6.3990                 8.0659                 5.7025
 Frc consts  --      1.2442                 1.6263                 1.2633
 IR Inten    --     21.7672                 3.0494                 4.7181

                     58                     59                     60
                      A                      A                      A
 Frequencies --    629.7053               644.0039               648.8557
 Red. masses --      8.7829                 7.7735                13.0753
 Frc consts  --      2.0519                 1.8995                 3.2434
 IR Inten    --    205.2197                 2.0426                45.5581

                     61                     62                     63
                      A                      A                      A
 Frequencies --    679.1641               682.7444               684.8469
 Red. masses --     10.3198                 3.7162                 4.3287
 Frc consts  --      2.8046                 1.0206                 1.1962
 IR Inten    --     25.8378               119.1142               277.3255

                     64                     65                     66
                      A                      A                      A
 Frequencies --    714.5844               779.0472               794.2040
 Red. masses --      5.4988                 4.6497                 7.3995
 Frc consts  --      1.6543                 1.6626                 2.7499
 IR Inten    --    111.4703                20.2262                23.4494

                     67                     68                     69
                      A                      A                      A
 Frequencies --    821.1404               824.4169               871.1628
 Red. masses --      9.1490                 4.9785                 3.3155
 Frc consts  --      3.6346                 1.9936                 1.4825
 IR Inten    --     48.7483                26.7095                61.2717

                     70                     71                     72
                      A                      A                      A
 Frequencies --    878.0691               904.0526               910.4621
 Red. masses --      1.5487                 1.3891                 5.1059
 Frc consts  --      0.7035                 0.6689                 2.4937
 IR Inten    --     42.6770                 0.3385                 7.5448

                     73                     74                     75
                      A                      A                      A
 Frequencies --    914.0129               923.3239               949.0002
 Red. masses --      1.3543                 4.6088                 4.3171
 Frc consts  --      0.6666                 2.3150                 2.2908
 IR Inten    --      5.5649                26.7843                59.5293

                     76                     77                     78
                      A                      A                      A
 Frequencies --    963.5271               988.9386               992.0786
 Red. masses --      4.7521                 6.0047                 3.8326
 Frc consts  --      2.5994                 3.4601                 2.2225
 IR Inten    --     26.5517                15.8289               122.7696

                     79                     80                     81
                      A                      A                      A
 Frequencies --   1030.8379              1044.4792              1060.5662
 Red. masses --      3.3127                11.6754                 7.9670
 Frc consts  --      2.0740                 7.5045                 5.2798
 IR Inten    --     27.7249                78.0677                96.0231

                     82                     83                     84
                      A                      A                      A
 Frequencies --   1060.8590              1066.8588              1069.3056
 Red. masses --      9.0115                 4.7126                 4.7657
 Frc consts  --      5.9753                 3.1603                 3.2105
 IR Inten    --    590.0680               217.4550               143.7751

                     85                     86                     87
                      A                      A                      A
 Frequencies --   1077.9032              1082.1732              1089.4257
 Red. masses --      8.4548                 4.3728                 3.8236
 Frc consts  --      5.7878                 3.0172                 2.6738
 IR Inten    --    249.6156                47.1479               319.6042

                     88                     89                     90
                      A                      A                      A
 Frequencies --   1091.5413              1093.6300              1097.1206
 Red. masses --      3.4143                 3.3702                 5.9155
 Frc consts  --      2.3968                 2.3749                 4.1952
 IR Inten    --    208.8833               188.1367               195.7554

                     91                     92                     93
                      A                      A                      A
 Frequencies --   1099.9097              1115.1857              1128.4611
 Red. masses --      3.7328                 4.2011                 2.8298
 Frc consts  --      2.6607                 3.0783                 2.1232
 IR Inten    --      7.5421               114.5102                61.6394

                     94                     95                     96
                      A                      A                      A
 Frequencies --   1135.9324              1145.7400              1148.2563
 Red. masses --      4.7882                 3.4214                 1.2724
 Frc consts  --      3.6402                 2.6462                 0.9884
 IR Inten    --    156.8240               164.6129                 1.4369

                     97                     98                     99
                      A                      A                      A
 Frequencies --   1150.6278              1152.0877              1157.4753
 Red. masses --      1.2748                 1.2575                 1.2643
 Frc consts  --      0.9944                 0.9834                 0.9980
 IR Inten    --      3.6702                 1.6386                 0.5851

                    100                    101                    102
                      A                      A                      A
 Frequencies --   1177.4133              1182.6653              1187.4444
 Red. masses --      1.3177                 1.3775                 1.4395
 Frc consts  --      1.0763                 1.1352                 1.1959
 IR Inten    --     12.8613                16.1203                 4.8357

                    103                    104                    105
                      A                      A                      A
 Frequencies --   1198.8768              1224.6264              1228.0133
 Red. masses --      1.5619                 4.6605                 2.0534
 Frc consts  --      1.3227                 4.1181                 1.8244
 IR Inten    --      9.0703               608.8340               318.3071

                    106                    107                    108
                      A                      A                      A
 Frequencies --   1230.4815              1265.8307              1283.2666
 Red. masses --      3.6088                 1.4066                 1.2849
 Frc consts  --      3.2193                 1.3279                 1.2467
 IR Inten    --     99.9883                 0.7007                 7.6847

                    109                    110                    111
                      A                      A                      A
 Frequencies --   1289.3155              1306.0713              1311.3555
 Red. masses --      1.3422                 1.2108                 4.8433
 Frc consts  --      1.3146                 1.2169                 4.9072
 IR Inten    --      1.7397                20.6667               184.6435

                    112                    113                    114
                      A                      A                      A
 Frequencies --   1328.3237              1329.6404              1344.0145
 Red. masses --      1.2329                 1.1757                 1.2428
 Frc consts  --      1.2817                 1.2247                 1.3227
 IR Inten    --     21.7992                 6.6076                 4.9529

                    115                    116                    117
                      A                      A                      A
 Frequencies --   1349.3102              1350.8343              1370.2443
 Red. masses --      3.2594                 1.7387                 1.2916
 Frc consts  --      3.4963                 1.8693                 1.4288
 IR Inten    --      4.0284                 9.1898                 2.1184

                    118                    119                    120
                      A                      A                      A
 Frequencies --   1376.9656              1389.9900              1397.2523
 Red. masses --      1.2896                 1.2666                 1.2536
 Frc consts  --      1.4406                 1.4418                 1.4420
 IR Inten    --     23.7695                11.6907                16.2248

                    121                    122                    123
                      A                      A                      A
 Frequencies --   1435.6398              1448.9457              1450.1646
 Red. masses --      3.3789                 1.1743                 3.0116
 Frc consts  --      4.1032                 1.4526                 3.7315
 IR Inten    --      7.6492                 3.5743                 3.5225

                    124                    125                    126
                      A                      A                      A
 Frequencies --   1452.0255              1453.4823              1456.0775
 Red. masses --      1.1520                 1.1478                 1.1310
 Frc consts  --      1.4310                 1.4287                 1.4128
 IR Inten    --      2.7019                 1.9615                 3.7974

                    127                    128                    129
                      A                      A                      A
 Frequencies --   1464.9586              1468.5386              1469.8939
 Red. masses --      1.0533                 1.0690                 1.0648
 Frc consts  --      1.3318                 1.3583                 1.3555
 IR Inten    --      1.2026                 6.3159                 3.8609

                    130                    131                    132
                      A                      A                      A
 Frequencies --   1472.2638              1475.7408              1489.5587
 Red. masses --      1.1000                 1.0802                 1.0485
 Frc consts  --      1.4048                 1.3861                 1.3706
 IR Inten    --      0.6220                 6.9434                10.2131

                    133                    134                    135
                      A                      A                      A
 Frequencies --   1497.9509              1498.4207              1500.7077
 Red. masses --      1.0506                 1.0514                 1.0572
 Frc consts  --      1.3890                 1.3909                 1.4028
 IR Inten    --      4.3013                10.1960                 8.7392

                    136                    137                    138
                      A                      A                      A
 Frequencies --   1581.3688              1605.7856              2917.1607
 Red. masses --      5.9643                 5.6808                 1.0814
 Frc consts  --      8.7878                 8.6305                 5.4220
 IR Inten    --      6.9778                11.4407                32.9311

                    139                    140                    141
                      A                      A                      A
 Frequencies --   2937.2978              2938.7386              2944.2590
 Red. masses --      1.0417                 1.0369                 1.0353
 Frc consts  --      5.2954                 5.2762                 5.2878
 IR Inten    --    111.6524                45.7709                76.3353

                    142                    143                    144
                      A                      A                      A
 Frequencies --   2952.3557              2961.5758              2971.3118
 Red. masses --      1.0323                 1.0829                 1.0804
 Frc consts  --      5.3013                 5.5961                 5.6198
 IR Inten    --     59.6894                25.6204                 7.5312

                    145                    146                    147
                      A                      A                      A
 Frequencies --   2989.7666              2991.2511              2992.1689
 Red. masses --      1.0703                 1.1048                 1.0762
 Frc consts  --      5.6369                 5.8244                 5.6770
 IR Inten    --     15.6279                84.6940                77.1369

                    148                    149                    150
                      A                      A                      A
 Frequencies --   3008.9825              3010.7060              3014.4738
 Red. masses --      1.1018                 1.1035                 1.0910
 Frc consts  --      5.8773                 5.8935                 5.8410
 IR Inten    --     51.2319                52.8093                55.7547

                    151                    152                    153
                      A                      A                      A
 Frequencies --   3049.9562              3056.6216              3057.8487
 Red. masses --      1.1026                 1.1027                 1.1022
 Frc consts  --      6.0430                 6.0702                 6.0722
 IR Inten    --     19.0526                52.0748                44.1749

                    154                    155                    156
                      A                      A                      A
 Frequencies --   3059.9310              3069.1474              3072.2793
 Red. masses --      1.1042                 1.0888                 1.0971
 Frc consts  --      6.0913                 6.0427                 6.1012
 IR Inten    --     40.9364                23.2835                24.7598

                    157                    158                    159
                      A                      A                      A
 Frequencies --   3163.6749              3163.8857              3178.4232
 Red. masses --      1.0912                 1.0909                 1.0910
 Frc consts  --      6.4348                 6.4337                 6.4940
 IR Inten    --      0.2082                 4.4051                 5.1138

 - Thermochemistry -
 -------------------
 Temperature   298.150 Kelvin.  Pressure   1.00000 Atm.
 Atom     1 has atomic number  6 and mass  12.00000

 Molecular mass:   512.09396 amu.
 Principal axes and moments of inertia in atomic units:
                           1         2         3
     Eigenvalues --  ******************************
           X            0.99995   0.00683   0.00730
           Y           -0.00793   0.98664   0.16275
           Z           -0.00609  -0.16280   0.98664
 This molecule is an asymmetric top.
 Rotational symmetry number  1.
 Warning -- assumption of classical behavior for rotation
           may cause significant error
 Rotational temperatures (Kelvin)      0.00708     0.00402     0.00395
 Rotational constants (GHZ):           0.14760     0.08381     0.08238
 Zero-point vibrational energy    1042623.3 (Joules/Mol)
                                  249.19294 (Kcal/Mol)
 Warning -- explicit consideration of  57 degrees of freedom as
           vibrations may cause significant error
 Vibrational temperatures:     23.67    27.36    28.61    36.95    50.48
          (Kelvin)             62.16    71.90    76.16    93.03   104.87
                              110.97   127.30   135.92   140.29   146.49
                              161.61   183.34   211.77   219.76   231.21
                              240.11   256.44   269.90   277.84   296.02
                              323.00   327.72   341.64   354.99   368.13
                              386.96   398.78   406.72   408.82   436.45
                              451.76   474.30   484.77   497.21   499.10
                              565.79   582.01   607.38   620.09   632.46
                              651.64   666.45   680.68   712.54   721.57
                              744.16   773.02   783.41   792.96   826.51
                              841.66   882.26   906.01   926.58   933.56
                              977.17   982.32   985.34  1028.13  1120.88
                             1142.68  1181.44  1186.15  1253.41  1263.35
                             1300.73  1309.95  1315.06  1328.46  1365.40
                             1386.30  1422.86  1427.38  1483.15  1502.77
                             1525.92  1526.34  1534.97  1538.49  1550.86
                             1557.01  1567.44  1570.48  1573.49  1578.51
                             1582.52  1604.50  1623.60  1634.35  1648.46
                             1652.08  1655.50  1657.60  1665.35  1694.04
                             1701.59  1708.47  1724.92  1761.96  1766.84
                             1770.39  1821.25  1846.33  1855.04  1879.15
                             1886.75  1911.16  1913.06  1933.74  1941.36
                             1943.55  1971.48  1981.15  1999.89  2010.33
                             2065.57  2084.71  2086.46  2089.14  2091.24
                             2094.97  2107.75  2112.90  2114.85  2118.26
                             2123.26  2143.14  2155.22  2155.89  2159.18
                             2275.24  2310.37  4197.14  4226.12  4228.19
                             4236.13  4247.78  4261.05  4275.06  4301.61
                             4303.74  4305.06  4329.25  4331.73  4337.16
                             4388.21  4397.80  4399.56  4402.56  4415.82
                             4420.32  4551.82  4552.13  4573.04

 Zero-point correction=                           0.397114 (Hartree/Particle)
 Thermal correction to Energy=                    0.431618
 Thermal correction to Enthalpy=                  0.432562
 Thermal correction to Gibbs Free Energy=         0.327295
 Sum of electronic and zero-point Energies=          -2297.337240
 Sum of electronic and thermal Energies=             -2297.302736
 Sum of electronic and thermal Enthalpies=           -2297.301792
 Sum of electronic and thermal Free Energies=        -2297.407059

                     E (Thermal)             CV                S
                      KCal/Mol        Cal/Mol-Kelvin    Cal/Mol-Kelvin
 Total                  270.845            125.317            221.554
 Electronic               0.000              0.000              0.000
 Translational            0.889              2.981             44.587
 Rotational               0.889              2.981             36.998
 Vibrational            269.067            119.356            139.969
 Vibration     1          0.593              1.986              7.022
 Vibration     2          0.593              1.986              6.734
 Vibration     3          0.593              1.986              6.646
 Vibration     4          0.593              1.985              6.138
 Vibration     5          0.594              1.982              5.519
 Vibration     6          0.595              1.980              5.107
 Vibration     7          0.595              1.978              4.818
 Vibration     8          0.596              1.976              4.705
 Vibration     9          0.597              1.971              4.310
 Vibration    10          0.599              1.967              4.074
 Vibration    11          0.599              1.964              3.963
 Vibration    12          0.601              1.957              3.693
 Vibration    13          0.603              1.953              3.565
 Vibration    14          0.603              1.951              3.504
 Vibration    15          0.604              1.948              3.419
 Vibration    16          0.607              1.939              3.228
 Vibration    17          0.611              1.926              2.985
 Vibration    18          0.617              1.906              2.708
 Vibration    19          0.619              1.900              2.638
 Vibration    20          0.622              1.891              2.542
 Vibration    21          0.624              1.883              2.470
 Vibration    22          0.629              1.869              2.347
 Vibration    23          0.632              1.857              2.252
 Vibration    24          0.635              1.849              2.198
 Vibration    25          0.640              1.832              2.081
 Vibration    26          0.649              1.804              1.923
 Vibration    27          0.651              1.799              1.896
 Vibration    28          0.656              1.783              1.822
 Vibration    29          0.661              1.768              1.754
 Vibration    30          0.666              1.753              1.690
 Vibration    31          0.673              1.730              1.603
 Vibration    32          0.678              1.716              1.551
 Vibration    33          0.682              1.706              1.517
 Vibration    34          0.683              1.703              1.509
 Vibration    35          0.695              1.667              1.398
 Vibration    36          0.702              1.647              1.341
 Vibration    37          0.712              1.616              1.262
 Vibration    38          0.718              1.602              1.227
 Vibration    39          0.724              1.584              1.186
 Vibration    40          0.725              1.582              1.180
 Vibration    41          0.760              1.485              0.988
 Vibration    42          0.770              1.460              0.946
 Vibration    43          0.784              1.422              0.885
 Vibration    44          0.792              1.403              0.855
 Vibration    45          0.800              1.384              0.828
 Vibration    46          0.811              1.354              0.787
 Vibration    47          0.821              1.332              0.757
 Vibration    48          0.830              1.310              0.729
 Vibration    49          0.851              1.261              0.670
 Vibration    50          0.857              1.247              0.654
 Vibration    51          0.872              1.212              0.616
 Vibration    52          0.892              1.168              0.571
 Vibration    53          0.900              1.152              0.556
 Vibration    54          0.906              1.137              0.542
 Vibration    55          0.931              1.087              0.496
 Vibration    56          0.942              1.064              0.476
 Vibration    57          0.973              1.004              0.428

 Optimization completed.
    -- Stationary point found.
 Normal termination of Gaussian 16 at Sat Jun 15 08:34:12 2019.
