 Gaussian 16, Revision A.03,
 Gaussian 16:  AS64L-G16RevA.03 25-Dec-2016

 ----------------------------------------------------------------------
 #p opt freq=noraman 6-31g(d) scrf=(solvent=tetrahydrofuran,pcm) pop=no
 ne b97d empiricaldispersion=gd3 extrabasis
 ----------------------------------------------------------------------

 -----
 title
 -----
 Symbolic Z-matrix:
 Charge =  0 Multiplicity = 1

 SCF Done:  E(RB97D) =  -2296.96762136     A.U. after   15 cycles
 SCF Done:  E(RB97D) =  -2296.96762081     A.U. after    6 cycles
 SCF Done:  E(RB97D) =  -2296.96762133     A.U. after    7 cycles
 SCF Done:  E(RB97D) =  -2296.96762064     A.U. after    6 cycles
 SCF Done:  E(RB97D) =  -2296.96762051     A.U. after    6 cycles
 Optimization completed.
    -- Stationary point found.
 Normal termination of Gaussian 16 at Sat Jun 15 07:17:14 2019.

 -----------------------------------------------------------------
 #P Geom=AllCheck Guess=TCheck SCRF=Check GenChk RB97D/ChkBas Freq
 -----------------------------------------------------------------

 Structure from the checkpoint file:  "/scratch/users/ekwan/clay_new-glu_gluC6-bisCF3-sm-b97d3-custom-pcm_thf/Gau-32145.chk"
 -----
 title
 -----
 Charge =  0 Multiplicity = 1

                         Standard orientation:
 ---------------------------------------------------------------------
 Center     Atomic      Atomic             Coordinates (Angstroms)
 Number     Number       Type             X           Y           Z
 ---------------------------------------------------------------------
      1          6           0       -3.381164   -0.486448    0.540539
      2          6           0       -3.337798    0.564567   -0.585014
      3          6           0       -1.878495    0.981244   -0.900108
      4          6           0       -0.987796   -1.099387   -0.093433
      5          6           0       -2.392931   -1.625958    0.244253
      6          1           0       -1.814588    1.636333   -1.776210
      7          1           0       -3.713936    0.085529   -1.510467
      8          1           0       -3.093827   -0.010850    1.494092
      9          1           0       -0.556263   -0.622513    0.802849
     10          1           0       -2.764574   -2.195751   -0.622482
     11          8           0       -1.047220   -0.107149   -1.161031
     12          8           0       -1.423161    1.746289    0.281819
     13          8           0       -4.160165    1.659210   -0.218035
     14          8           0       -4.681022   -1.070847    0.634924
     15          8           0       -2.255887   -2.466273    1.391582
     16          6           0       -0.040986   -2.224466   -0.534493
     17          1           0        0.187217   -2.819036    0.360361
     18          1           0        0.894051   -1.779104   -0.915216
     19          8           0       -0.590703   -3.139951   -1.478010
     20         16           0       -0.105976    2.734506    0.103897
     21          8           0       -0.098083    3.541361    1.332841
     22          8           0       -0.146173    3.360046   -1.231253
     23          6           0        1.277896    1.580769    0.157466
     24          6           0        1.719097    1.117939    1.402675
     25          6           0        1.841171    1.144147   -1.046499
     26          6           0        2.767076    0.186637    1.432496
     27          1           0        1.257620    1.471396    2.322686
     28          6           0        2.890921    0.218266   -0.990214
     29          1           0        1.469626    1.515079   -1.998468
     30          6           0        3.355431   -0.264433    0.242455
     31          1           0        4.166363   -0.989585    0.274629
     32          6           0       -4.492295    2.538209   -1.301563
     33          1           0       -3.619609    3.121517   -1.642526
     34          1           0       -4.909074    1.977186   -2.157567
     35          1           0       -5.251415    3.230175   -0.915498
     36          6           0       -5.527068   -0.469605    1.623254
     37          1           0       -6.473251   -1.027792    1.599595
     38          1           0       -5.083412   -0.555702    2.632542
     39          1           0       -5.716304    0.591630    1.400950
     40          6           0       -2.905099   -3.736867    1.251425
     41          1           0       -2.727093   -4.281737    2.188896
     42          1           0       -3.988870   -3.612123    1.096494
     43          1           0       -2.476129   -4.308570    0.409390
     44          6           0       -0.653164   -2.633044   -2.817891
     45          1           0       -0.913254   -3.485449   -3.460608
     46          1           0        0.322743   -2.221855   -3.133012
     47          1           0       -1.416513   -1.845664   -2.924721
     48          6           0        3.307740   -0.296323    2.764655
     49          9           0        2.363838   -0.234933    3.740314
     50          9           0        4.362356    0.464681    3.169165
     51          9           0        3.744599   -1.581966    2.685885
     52          6           0        3.471407   -0.341454   -2.273107
     53          9           0        2.876159   -1.531121   -2.596222
     54          9           0        4.802499   -0.585087   -2.155576
     55          9           0        3.287409    0.498487   -3.322692
 ---------------------------------------------------------------------

 SCF Done:  E(RB97D) =  -2296.96762051     A.U. after    2 cycles

 Isotropic polarizability for W=    0.000000      299.37 Bohr**3.
 End of Minotr F.D. properties file   721 does not exist.

                      1                      2                      3
                      A                      A                      A
 Frequencies --     11.4860                16.4749                18.2562
 Red. masses --      7.6136                 7.8411                17.6516
 Frc consts  --      0.0006                 0.0013                 0.0035
 IR Inten    --      0.4300                 0.0811                 0.0235

                      4                      5                      6
                      A                      A                      A
 Frequencies --     24.3009                32.5901                40.4648
 Red. masses --     12.8076                 4.6933                 6.3014
 Frc consts  --      0.0045                 0.0029                 0.0061
 IR Inten    --      0.0459                 0.5843                 1.0319

                      7                      8                      9
                      A                      A                      A
 Frequencies --     50.4139                51.6458                57.7871
 Red. masses --      3.5914                 3.5509                 3.1651
 Frc consts  --      0.0054                 0.0056                 0.0062
 IR Inten    --      0.1538                 1.0397                 4.7604

                     10                     11                     12
                      A                      A                      A
 Frequencies --     62.5684                68.1702                82.7070
 Red. masses --      3.3874                 3.6646                 2.9727
 Frc consts  --      0.0078                 0.0100                 0.0120
 IR Inten    --      3.4983                 1.1857                 3.7464

                     13                     14                     15
                      A                      A                      A
 Frequencies --     90.0344                97.2146               103.5484
 Red. masses --      3.5298                 9.2974                12.0711
 Frc consts  --      0.0169                 0.0518                 0.0763
 IR Inten    --      2.7714                 3.5079                 3.3991

                     16                     17                     18
                      A                      A                      A
 Frequencies --    113.3064               125.1514               147.9665
 Red. masses --     10.2988                 2.4395                 7.5871
 Frc consts  --      0.0779                 0.0225                 0.0979
 IR Inten    --      0.4644                 3.7898                 0.4407

                     19                     20                     21
                      A                      A                      A
 Frequencies --    158.3498               164.5652               171.6030
 Red. masses --      3.9531                 2.1459                 2.2979
 Frc consts  --      0.0584                 0.0342                 0.0399
 IR Inten    --      1.8334                 0.1012                 1.9448

                     22                     23                     24
                      A                      A                      A
 Frequencies --    183.9135               190.8382               199.7062
 Red. masses --      2.0998                 2.1216                 1.9565
 Frc consts  --      0.0418                 0.0455                 0.0460
 IR Inten    --      0.0917                 7.9271                 3.6289

                     25                     26                     27
                      A                      A                      A
 Frequencies --    212.6863               233.9604               235.9698
 Red. masses --      1.6873                 2.6219                 3.9183
 Frc consts  --      0.0450                 0.0846                 0.1285
 IR Inten    --      0.7784                 1.6121                 2.3185

                     28                     29                     30
                      A                      A                      A
 Frequencies --    242.9136               253.6738               266.3168
 Red. masses --      6.4226                 3.1562                 3.1527
 Frc consts  --      0.2233                 0.1197                 0.1317
 IR Inten    --      2.7444                10.2885                10.6099

                     31                     32                     33
                      A                      A                      A
 Frequencies --    273.2553               282.9929               286.8930
 Red. masses --      9.9991                 6.0306                 9.8802
 Frc consts  --      0.4399                 0.2846                 0.4791
 IR Inten    --      4.6813                17.6643                 3.1979

                     34                     35                     36
                      A                      A                      A
 Frequencies --    290.2364               305.2618               322.2945
 Red. masses --      4.8254                 5.6746                 4.3012
 Frc consts  --      0.2395                 0.3116                 0.2632
 IR Inten    --      6.6562                 0.1702                 3.5617

                     37                     38                     39
                      A                      A                      A
 Frequencies --    333.9498               342.9074               353.3527
 Red. masses --      7.7627                 7.5784                 6.2661
 Frc consts  --      0.5101                 0.5250                 0.4610
 IR Inten    --      1.3083                10.9597                19.4878

                     40                     41                     42
                      A                      A                      A
 Frequencies --    354.1428               398.7938               411.0741
 Red. masses --      4.9207                10.5404                 9.3997
 Frc consts  --      0.3636                 0.9877                 0.9358
 IR Inten    --      9.0782                15.3227                 8.6978

                     43                     44                     45
                      A                      A                      A
 Frequencies --    429.6147               438.5749               449.8359
 Red. masses --      2.3315                 5.9708                 9.1204
 Frc consts  --      0.2535                 0.6767                 1.0874
 IR Inten    --      8.9693                 9.5142                32.5988

                     46                     47                     48
                      A                      A                      A
 Frequencies --    460.9703               473.2691               480.1134
 Red. masses --      4.0245                 7.4036                12.0242
 Frc consts  --      0.5039                 0.9770                 1.6330
 IR Inten    --      8.5112                 8.6575                 1.0413

                     49                     50                     51
                      A                      A                      A
 Frequencies --    505.3681               512.3235               529.4348
 Red. masses --      9.9848                 6.3972                 4.5555
 Frc consts  --      1.5025                 0.9893                 0.7523
 IR Inten    --     52.6250                 4.9180                62.8429

                     52                     53                     54
                      A                      A                      A
 Frequencies --    547.5812               555.8008               560.9167
 Red. masses --     10.5046                 7.8775                 4.1743
 Frc consts  --      1.8558                 1.4338                 0.7738
 IR Inten    --     41.4052               152.1353                37.7912

                     55                     56                     57
                      A                      A                      A
 Frequencies --    583.0457               593.0995               624.8167
 Red. masses --      6.3696                 8.3069                 5.7873
 Frc consts  --      1.2758                 1.7216                 1.3312
 IR Inten    --     34.3480                 3.3385                 4.9148

                     58                     59                     60
                      A                      A                      A
 Frequencies --    645.1957               650.1535               658.5048
 Red. masses --      7.7551                 7.7964                13.1784
 Frc consts  --      1.9020                 1.9417                 3.3669
 IR Inten    --    141.0188                 1.8738                47.7783

                     61                     62                     63
                      A                      A                      A
 Frequencies --    685.6620               690.4423               703.2581
 Red. masses --      2.6773                11.9972                 6.3218
 Frc consts  --      0.7416                 3.3696                 1.8421
 IR Inten    --     13.4031                 2.2336               393.4709

                     64                     65                     66
                      A                      A                      A
 Frequencies --    729.9771               791.0915               803.7846
 Red. masses --      6.2073                 4.9816                 6.5957
 Frc consts  --      1.9488                 1.8368                 2.5107
 IR Inten    --    211.9559                19.3392                22.7381

                     67                     68                     69
                      A                      A                      A
 Frequencies --    826.4515               838.0568               879.6776
 Red. masses --     11.8603                 4.2919                 1.5574
 Frc consts  --      4.7729                 1.7760                 0.7101
 IR Inten    --     35.7872                37.9785                71.7173

                     70                     71                     72
                      A                      A                      A
 Frequencies --    887.9559               908.3568               915.0150
 Red. masses --      3.3007                 1.3849                 1.3632
 Frc consts  --      1.5334                 0.6733                 0.6724
 IR Inten    --     38.2881                 0.3935                 4.6187

                     73                     74                     75
                      A                      A                      A
 Frequencies --    925.0354               937.7862               961.9378
 Red. masses --      5.1715                 4.5251                 4.2432
 Frc consts  --      2.6072                 2.3447                 2.3133
 IR Inten    --      8.7998                28.5112                49.9711

                     76                     77                     78
                      A                      A                      A
 Frequencies --    978.0237               989.5626              1006.3409
 Red. masses --      4.7561                 6.3989                 3.6615
 Frc consts  --      2.6804                 3.6918                 2.1847
 IR Inten    --     23.0350                 1.9179               140.5347

                     79                     80                     81
                      A                      A                      A
 Frequencies --   1045.1484              1066.9127              1078.3124
 Red. masses --      3.4397                11.9274                 5.6355
 Frc consts  --      2.2138                 7.9993                 3.8608
 IR Inten    --     25.8574                54.0117               330.7928

                     82                     83                     84
                      A                      A                      A
 Frequencies --   1080.5627              1082.5286              1086.0654
 Red. masses --      9.0527                 5.0006                 4.1962
 Frc consts  --      6.2277                 3.4527                 2.9162
 IR Inten    --    291.2832               257.8722               138.4032

                     85                     86                     87
                      A                      A                      A
 Frequencies --   1096.4115              1098.0520              1105.1174
 Red. masses --      7.6651                 4.0753                 3.9584
 Frc consts  --      5.4289                 2.8950                 2.8483
 IR Inten    --    291.4643                37.4019               232.5230

                     88                     89                     90
                      A                      A                      A
 Frequencies --   1107.5820              1108.9531              1114.1116
 Red. masses --      2.9049                 3.2451                10.4499
 Frc consts  --      2.0996                 2.3513                 7.6422
 IR Inten    --    140.2882               358.1754               327.8161

                     91                     92                     93
                      A                      A                      A
 Frequencies --   1118.2151              1131.6827              1141.5487
 Red. masses --      4.2583                 4.4545                 3.1188
 Frc consts  --      3.1372                 3.3612                 2.3946
 IR Inten    --     16.9185               135.5385                78.3730

                     94                     95                     96
                      A                      A                      A
 Frequencies --   1152.9030              1162.8748              1165.2366
 Red. masses --      5.4434                 3.3973                 1.2701
 Frc consts  --      4.2629                 2.7068                 1.0160
 IR Inten    --    172.7075               178.6004                 1.1871

                     97                     98                     99
                      A                      A                      A
 Frequencies --   1166.7355              1169.7737              1174.8559
 Red. masses --      1.2606                 1.2829                 1.2747
 Frc consts  --      1.0110                 1.0343                 1.0366
 IR Inten    --      0.0860                 2.7326                 1.5464

                    100                    101                    102
                      A                      A                      A
 Frequencies --   1191.6981              1198.5199              1203.9054
 Red. masses --      1.3183                 1.3862                 1.4721
 Frc consts  --      1.1030                 1.1732                 1.2571
 IR Inten    --     17.7456                15.4015                 4.8330

                    103                    104                    105
                      A                      A                      A
 Frequencies --   1212.0783              1238.2695              1239.9251
 Red. masses --      1.5287                 3.2158                 1.6683
 Frc consts  --      1.3232                 2.9051                 1.5112
 IR Inten    --     11.4579               809.1279                 6.2971

                    106                    107                    108
                      A                      A                      A
 Frequencies --   1263.4276              1278.3856              1296.3232
 Red. masses --     12.6148                 1.4095                 1.3286
 Frc consts  --     11.8640                 1.3572                 1.3154
 IR Inten    --    239.7211                 1.6334                 9.7760

                    109                    110                    111
                      A                      A                      A
 Frequencies --   1303.0542              1318.9605              1323.4190
 Red. masses --      1.3703                 4.2296                 1.2766
 Frc consts  --      1.3708                 4.3353                 1.3173
 IR Inten    --      3.2544               178.7600                28.4740

                    112                    113                    114
                      A                      A                      A
 Frequencies --   1343.0901              1350.4487              1363.0092
 Red. masses --      1.1937                 1.1736                 1.5915
 Frc consts  --      1.2687                 1.2610                 1.7421
 IR Inten    --     17.6797                10.7223                 1.8469

                    115                    116                    117
                      A                      A                      A
 Frequencies --   1364.4792              1368.5899              1386.6170
 Red. masses --      2.5444                 1.4231                 1.2578
 Frc consts  --      2.7911                 1.5704                 1.4249
 IR Inten    --      1.9233                 6.6307                 4.6202

                    118                    119                    120
                      A                      A                      A
 Frequencies --   1392.8175              1402.8567              1412.2066
 Red. masses --      1.3361                 1.2809                 1.2397
 Frc consts  --      1.5271                 1.4852                 1.4566
 IR Inten    --     24.3469                13.4647                18.7399

                    121                    122                    123
                      A                      A                      A
 Frequencies --   1446.5861              1458.1060              1459.7396
 Red. masses --      3.2592                 3.1237                 1.1455
 Frc consts  --      4.0184                 3.9129                 1.4381
 IR Inten    --      9.4269                 1.7368                 4.5788

                    124                    125                    126
                      A                      A                      A
 Frequencies --   1466.7433              1469.2534              1472.7437
 Red. masses --      1.1388                 1.1367                 1.1021
 Frc consts  --      1.4435                 1.4458                 1.4084
 IR Inten    --      0.0811                 1.0145                 6.5434

                    127                    128                    129
                      A                      A                      A
 Frequencies --   1477.5024              1480.4088              1480.6622
 Red. masses --      1.0603                 1.0686                 1.0533
 Frc consts  --      1.3637                 1.3799                 1.3605
 IR Inten    --      2.0619                 1.6129                 9.2452

                    130                    131                    132
                      A                      A                      A
 Frequencies --   1485.8763              1489.0763              1499.4061
 Red. masses --      1.1163                 1.1019                 1.0493
 Frc consts  --      1.4521                 1.4395                 1.3900
 IR Inten    --      3.3673                 6.7634                10.2265

                    133                    134                    135
                      A                      A                      A
 Frequencies --   1503.8159              1504.3157              1508.4172
 Red. masses --      1.0522                 1.0498                 1.0666
 Frc consts  --      1.4020                 1.3998                 1.4299
 IR Inten    --      9.3852                 5.0720                 7.5481

                    136                    137                    138
                      A                      A                      A
 Frequencies --   1598.0633              1620.0136              2933.1720
 Red. masses --      5.7832                 5.5545                 1.0807
 Frc consts  --      8.7018                 8.5887                 5.4781
 IR Inten    --      7.7945                12.5185                37.0497

                    139                    140                    141
                      A                      A                      A
 Frequencies --   2943.6995              2945.8153              2952.3319
 Red. masses --      1.0397                 1.0359                 1.0331
 Frc consts  --      5.3083                 5.2965                 5.3054
 IR Inten    --    118.7398                58.1796                90.7099

                    142                    143                    144
                      A                      A                      A
 Frequencies --   2952.6146              2978.2366              2981.8261
 Red. masses --      1.0335                 1.0832                 1.0704
 Frc consts  --      5.3087                 5.6610                 5.6073
 IR Inten    --     60.8238                23.2178                12.4393

                    145                    146                    147
                      A                      A                      A
 Frequencies --   2991.5362              3005.1908              3008.4443
 Red. masses --      1.0747                 1.0845                 1.1053
 Frc consts  --      5.6664                 5.7708                 5.8940
 IR Inten    --     41.0176                81.7820                68.1794

                    148                    149                    150
                      A                      A                      A
 Frequencies --   3023.0746              3026.5040              3029.0363
 Red. masses --      1.1021                 1.1031                 1.0931
 Frc consts  --      5.9345                 5.9534                 5.9090
 IR Inten    --     55.9219                64.5278                58.3470

                    151                    152                    153
                      A                      A                      A
 Frequencies --   3066.0457              3071.3566              3072.9979
 Red. masses --      1.1008                 1.1038                 1.1037
 Frc consts  --      6.0970                 6.1346                 6.1408
 IR Inten    --     21.5940                56.8128                47.9758

                    154                    155                    156
                      A                      A                      A
 Frequencies --   3075.3078              3079.5548              3086.0796
 Red. masses --      1.1053                 1.0878                 1.0999
 Frc consts  --      6.1589                 6.0783                 6.1718
 IR Inten    --     44.4251                22.0669                34.3617

                    157                    158                    159
                      A                      A                      A
 Frequencies --   3180.3588              3182.5304              3193.9662
 Red. masses --      1.0917                 1.0917                 1.0917
 Frc consts  --      6.5058                 6.5147                 6.5614
 IR Inten    --      0.0171                 3.3107                 4.0040

 - Thermochemistry -
 -------------------
 Temperature   298.150 Kelvin.  Pressure   1.00000 Atm.
 Atom     1 has atomic number  6 and mass  12.00000

 Molecular mass:   512.09396 amu.
 Principal axes and moments of inertia in atomic units:
                           1         2         3
     Eigenvalues --  ******************************
           X            0.99995   0.00819  -0.00532
           Y           -0.00861   0.99634  -0.08508
           Z            0.00461   0.08512   0.99636
 This molecule is an asymmetric top.
 Rotational symmetry number  1.
 Warning -- assumption of classical behavior for rotation
           may cause significant error
 Rotational temperatures (Kelvin)      0.00714     0.00403     0.00398
 Rotational constants (GHZ):           0.14884     0.08403     0.08297
 Zero-point vibrational energy    1052276.2 (Joules/Mol)
                                  251.50006 (Kcal/Mol)
 Warning -- explicit consideration of  56 degrees of freedom as
           vibrations may cause significant error
 Vibrational temperatures:     16.53    23.70    26.27    34.96    46.89
          (Kelvin)             58.22    72.53    74.31    83.14    90.02
                               98.08   119.00   129.54   139.87   148.98
                              163.02   180.06   212.89   227.83   236.77
                              246.90   264.61   274.57   287.33   306.01
                              336.62   339.51   349.50   364.98   383.17
                              393.15   407.16   412.78   417.59   439.20
                              463.71   480.48   493.37   508.40   509.53
                              573.78   591.44   618.12   631.01   647.21
                              663.23   680.93   690.78   727.11   737.12
                              761.74   787.85   799.67   807.03   838.87
                              853.34   898.97   928.29   935.43   947.44
                              986.51   993.39  1011.83  1050.27  1138.20
                             1156.47  1189.08  1205.78  1265.66  1277.57
                             1306.92  1316.50  1330.92  1349.27  1384.01
                             1407.16  1423.76  1447.90  1503.74  1535.05
                             1551.45  1554.69  1557.52  1562.61  1577.49
                             1579.85  1590.02  1593.56  1595.54  1602.96
                             1608.86  1628.24  1642.43  1658.77  1673.12
                             1676.52  1678.67  1683.04  1690.36  1714.59
                             1724.40  1732.15  1743.91  1781.59  1783.98
                             1817.79  1839.31  1865.12  1874.80  1897.69
                             1904.10  1932.41  1942.99  1961.07  1963.18
                             1969.10  1995.03  2003.95  2018.40  2031.85
                             2081.31  2097.89  2100.24  2110.32  2113.93
                             2118.95  2125.80  2129.98  2130.34  2137.84
                             2142.45  2157.31  2163.66  2164.37  2170.28
                             2299.26  2330.84  4220.18  4235.33  4238.37
                             4247.75  4248.15  4285.02  4290.18  4304.15
                             4323.80  4328.48  4349.53  4354.46  4358.11
                             4411.36  4419.00  4421.36  4424.68  4430.79
                             4440.18  4575.83  4578.95  4595.40

 Zero-point correction=                           0.400791 (Hartree/Particle)
 Thermal correction to Energy=                    0.434987
 Thermal correction to Enthalpy=                  0.435931
 Thermal correction to Gibbs Free Energy=         0.330254
 Sum of electronic and zero-point Energies=          -2296.566830
 Sum of electronic and thermal Energies=             -2296.532634
 Sum of electronic and thermal Enthalpies=           -2296.531690
 Sum of electronic and thermal Free Energies=        -2296.637367

                     E (Thermal)             CV                S
                      KCal/Mol        Cal/Mol-Kelvin    Cal/Mol-Kelvin
 Total                  272.958            123.919            222.416
 Electronic               0.000              0.000              0.000
 Translational            0.889              2.981             44.587
 Rotational               0.889              2.981             36.980
 Vibrational            271.181            117.957            140.849
 Vibration     1          0.593              1.987              7.736
 Vibration     2          0.593              1.986              7.019
 Vibration     3          0.593              1.986              6.815
 Vibration     4          0.593              1.985              6.248
 Vibration     5          0.594              1.983              5.665
 Vibration     6          0.594              1.981              5.236
 Vibration     7          0.595              1.977              4.801
 Vibration     8          0.596              1.977              4.753
 Vibration     9          0.596              1.974              4.531
 Vibration    10          0.597              1.972              4.374
 Vibration    11          0.598              1.969              4.206
 Vibration    12          0.600              1.961              3.826
 Vibration    13          0.602              1.956              3.659
 Vibration    14          0.603              1.951              3.509
 Vibration    15          0.605              1.946              3.386
 Vibration    16          0.607              1.938              3.211
 Vibration    17          0.610              1.928              3.019
 Vibration    18          0.617              1.905              2.698
 Vibration    19          0.621              1.893              2.569
 Vibration    20          0.623              1.886              2.497
 Vibration    21          0.626              1.877              2.418
 Vibration    22          0.631              1.862              2.288
 Vibration    23          0.634              1.853              2.220
 Vibration    24          0.638              1.840              2.136
 Vibration    25          0.644              1.822              2.020
 Vibration    26          0.654              1.789              1.848
 Vibration    27          0.655              1.786              1.833
 Vibration    28          0.659              1.774              1.781
 Vibration    29          0.665              1.757              1.705
 Vibration    30          0.672              1.735              1.620
 Vibration    31          0.676              1.723              1.576
 Vibration    32          0.682              1.705              1.516
 Vibration    33          0.684              1.698              1.492
 Vibration    34          0.686              1.692              1.473
 Vibration    35          0.696              1.664              1.388
 Vibration    36          0.707              1.631              1.298
 Vibration    37          0.715              1.608              1.241
 Vibration    38          0.722              1.590              1.199
 Vibration    39          0.730              1.568              1.151
 Vibration    40          0.730              1.567              1.148
 Vibration    41          0.765              1.473              0.967
 Vibration    42          0.775              1.446              0.923
 Vibration    43          0.791              1.406              0.860
 Vibration    44          0.799              1.386              0.831
 Vibration    45          0.809              1.361              0.796
 Vibration    46          0.819              1.337              0.763
 Vibration    47          0.830              1.309              0.728
 Vibration    48          0.836              1.294              0.710
 Vibration    49          0.861              1.238              0.645
 Vibration    50          0.867              1.223              0.628
 Vibration    51          0.884              1.185              0.588
 Vibration    52          0.903              1.145              0.549
 Vibration    53          0.911              1.127              0.532
 Vibration    54          0.917              1.116              0.522
 Vibration    55          0.940              1.068              0.480
 Vibration    56          0.951              1.046              0.462

                           ! Non-Optimized Parameters !
 Normal termination of Gaussian 16 at Sat Jun 15 07:54:57 2019.
