 Gaussian 16, Revision A.03,
 Gaussian 16:  AS64L-G16RevA.03 25-Dec-2016

 ----------------------------------------------------------------------
 #p opt freq=noraman pop=none 6-31g* scrf=(pcm,solvent=tetrahydrofuran)
  mpw1lyp extrabasis
 ----------------------------------------------------------------------

 -----
 title
 -----
 Symbolic Z-matrix:
 Charge =  0 Multiplicity = 1

 SCF Done:  E(RmPW1LYP) =  -2297.35157119     A.U. after   14 cycles
 Optimization completed.
    -- Stationary point found.
 Normal termination of Gaussian 16 at Sat Jun 15 08:49:52 2019.

 --------------------------------------------------------------------
 #P Geom=AllCheck Guess=TCheck SCRF=Check GenChk RmPW1LYP/ChkBas Freq
 --------------------------------------------------------------------

 Structure from the checkpoint file:  "/scratch/users/ekwan/clay_new-glu_gluC6-bisCF3-sm-mpw1lyp-custom-pcm_thf/Gau-13489.chk"
 -----
 title
 -----
 Charge =  0 Multiplicity = 1

                         Standard orientation:
 ---------------------------------------------------------------------
 Center     Atomic      Atomic             Coordinates (Angstroms)
 Number     Number       Type             X           Y           Z
 ---------------------------------------------------------------------
      1          6           0        3.512215   -0.216500    0.751889
      2          6           0        3.360587   -0.499074   -0.747480
      3          6           0        1.889105   -0.396229   -1.192480
      4          6           0        1.343058    1.088617    0.617423
      5          6           0        2.793874    1.087060    1.116874
      6          1           0        1.787622   -0.453466   -2.274398
      7          1           0        3.893005    0.295048   -1.291793
      8          1           0        3.065184   -1.035810    1.329330
      9          1           0        0.779656    0.322381    1.164404
     10          1           0        3.322823    1.926198    0.651135
     11          8           0        1.286856    0.788201   -0.797860
     12          8           0        1.199338   -1.555683   -0.616500
     13          8           0        3.926185   -1.754856   -1.044095
     14          8           0        4.880875   -0.066099    1.092332
     15          8           0        2.749640    1.244791    2.526481
     16          6           0        0.642320    2.426178    0.844046
     17          1           0        0.550737    2.559490    1.924565
     18          1           0       -0.365332    2.387205    0.412361
     19          8           0        1.350756    3.552332    0.360033
     20         16           0       -0.107904   -2.174623   -1.364814
     21          8           0       -0.209361   -3.537704   -0.857884
     22          8           0        0.003783   -1.912425   -2.799922
     23          6           0       -1.478016   -1.222563   -0.715295
     24          6           0       -2.152980   -1.693166    0.407824
     25          6           0       -1.831321   -0.030850   -1.343384
     26          6           0       -3.215412   -0.942178    0.909117
     27          1           0       -1.860053   -2.624246    0.875875
     28          6           0       -2.886466    0.710626   -0.816499
     29          1           0       -1.300065    0.311676   -2.221449
     30          6           0       -3.581828    0.259518    0.305134
     31          1           0       -4.403806    0.840180    0.704270
     32          6           0        4.337345   -1.922371   -2.396974
     33          1           0        3.486412   -1.938254   -3.088454
     34          1           0        5.030101   -1.126627   -2.698476
     35          1           0        4.848247   -2.884421   -2.448285
     36          6           0        5.498820   -1.229545    1.630081
     37          1           0        6.526259   -0.950252    1.871965
     38          1           0        4.993097   -1.556492    2.548142
     39          1           0        5.503502   -2.052323    0.909681
     40          6           0        3.665754    2.203145    3.044174
     41          1           0        3.516165    2.223517    4.125553
     42          1           0        4.700177    1.922583    2.823880
     43          1           0        3.464950    3.201739    2.635583
     44          6           0        1.119352    3.867310   -1.008003
     45          1           0        1.552320    4.855221   -1.178602
     46          1           0        0.043768    3.904536   -1.225888
     47          1           0        1.589119    3.144394   -1.682369
     48          6           0       -4.007011   -1.463746    2.081301
     49          9           0       -3.245650   -2.218304    2.895433
     50          9           0       -5.037767   -2.232280    1.674765
     51          9           0       -4.525269   -0.459725    2.813652
     52          6           0       -3.227776    2.044647   -1.427373
     53          9           0       -2.495799    3.038700   -0.866957
     54          9           0       -4.521276    2.362280   -1.246420
     55          9           0       -2.973319    2.067993   -2.747466
 ---------------------------------------------------------------------

 SCF Done:  E(RmPW1LYP) =  -2297.35157119     A.U. after    1 cycles

 Isotropic polarizability for W=    0.000000      281.11 Bohr**3.
 End of Minotr F.D. properties file   721 does not exist.

                      1                      2                      3
                      A                      A                      A
 Frequencies --     12.0133                20.0189                22.6968
 Red. masses --      9.6032                 6.4871                17.0677
 Frc consts  --      0.0008                 0.0015                 0.0052
 IR Inten    --      0.1816                 0.4773                 0.0120

                      4                      5                      6
                      A                      A                      A
 Frequencies --     27.7558                39.0133                43.6961
 Red. masses --     11.3758                 4.6553                 5.5179
 Frc consts  --      0.0052                 0.0042                 0.0062
 IR Inten    --      0.0352                 0.1201                 0.6854

                      7                      8                      9
                      A                      A                      A
 Frequencies --     52.2462                55.3167                60.2031
 Red. masses --      4.8468                 3.3875                 4.4237
 Frc consts  --      0.0078                 0.0061                 0.0094
 IR Inten    --      1.8504                 2.1264                 0.9533

                     10                     11                     12
                      A                      A                      A
 Frequencies --     70.0138                74.3556                82.7908
 Red. masses --      3.3903                 3.2808                 2.9973
 Frc consts  --      0.0098                 0.0107                 0.0121
 IR Inten    --      4.3959                 2.6830                 2.5070

                     13                     14                     15
                      A                      A                      A
 Frequencies --     85.2269               100.5726               102.5509
 Red. masses --      2.9000                11.6947                 6.8923
 Frc consts  --      0.0124                 0.0697                 0.0427
 IR Inten    --      5.2722                 3.1039                 4.6829

                     16                     17                     18
                      A                      A                      A
 Frequencies --    112.9724               118.9723               151.1412
 Red. masses --      2.8624                 5.6144                 7.4323
 Frc consts  --      0.0215                 0.0468                 0.1000
 IR Inten    --      2.9300                 2.5167                 0.2340

                     19                     20                     21
                      A                      A                      A
 Frequencies --    156.8142               161.9017               169.7902
 Red. masses --      1.3406                 2.0925                 3.0250
 Frc consts  --      0.0194                 0.0323                 0.0514
 IR Inten    --      0.5422                 0.4425                 1.3644

                     22                     23                     24
                      A                      A                      A
 Frequencies --    177.0450               186.8210               191.4421
 Red. masses --      1.7716                 3.1298                 1.8202
 Frc consts  --      0.0327                 0.0644                 0.0393
 IR Inten    --      2.7238                 5.2777                 1.1996

                     25                     26                     27
                      A                      A                      A
 Frequencies --    199.7670               226.9322               238.0462
 Red. masses --      1.7064                 2.9740                12.2274
 Frc consts  --      0.0401                 0.0902                 0.4082
 IR Inten    --      0.6808                12.0126                 0.2921

                     28                     29                     30
                      A                      A                      A
 Frequencies --    246.3881               254.7153               259.0659
 Red. masses --      4.5072                 3.5877                 5.3774
 Frc consts  --      0.1612                 0.1371                 0.2126
 IR Inten    --      4.6122                10.0530                12.3968

                     31                     32                     33
                      A                      A                      A
 Frequencies --    282.2824               288.2338               291.8140
 Red. masses --     10.6129                 5.3781                 9.6992
 Frc consts  --      0.4983                 0.2632                 0.4866
 IR Inten    --      2.7361                12.1595                 3.1863

                     34                     35                     36
                      A                      A                      A
 Frequencies --    294.1392               314.6249               323.5378
 Red. masses --      7.9561                 5.4807                 4.2008
 Frc consts  --      0.4056                 0.3196                 0.2591
 IR Inten    --      8.6867                 0.2720                 5.5286

                     37                     38                     39
                      A                      A                      A
 Frequencies --    344.8578               352.8086               358.7762
 Red. masses --      7.2147                 7.4638                 4.2603
 Frc consts  --      0.5055                 0.5474                 0.3231
 IR Inten    --      0.6021                 8.2330                 4.8839

                     40                     41                     42
                      A                      A                      A
 Frequencies --    366.3971               413.2190               419.9829
 Red. masses --      9.7824                10.1860                 8.8991
 Frc consts  --      0.7737                 1.0247                 0.9248
 IR Inten    --     15.8768                16.8149                 8.0632

                     43                     44                     45
                      A                      A                      A
 Frequencies --    445.7135               452.3094               462.0292
 Red. masses --      2.6385                 3.6939                 8.6041
 Frc consts  --      0.3088                 0.4453                 1.0822
 IR Inten    --      8.5686                13.8699                18.9718

                     46                     47                     48
                      A                      A                      A
 Frequencies --    471.2520               493.4727               499.8469
 Red. masses --      4.3175                 7.9180                11.8741
 Frc consts  --      0.5649                 1.1360                 1.7479
 IR Inten    --     10.5588                21.7341                 0.8287

                     49                     50                     51
                      A                      A                      A
 Frequencies --    522.8583               527.9129               539.5736
 Red. masses --      5.0226                10.4444                 4.7006
 Frc consts  --      0.8090                 1.7150                 0.8063
 IR Inten    --     38.6692                25.6870                16.2201

                     52                     53                     54
                      A                      A                      A
 Frequencies --    567.7882               568.7030               578.5417
 Red. masses --      5.0918                 7.4002                11.2666
 Frc consts  --      0.9672                 1.4101                 2.2218
 IR Inten    --     49.2840                40.1137               248.4607

                     55                     56                     57
                      A                      A                      A
 Frequencies --    607.2084               615.0329               630.3141
 Red. masses --      6.5327                 7.8750                 5.7641
 Frc consts  --      1.4191                 1.7551                 1.3493
 IR Inten    --     41.2364                 5.2784                10.6713

                     58                     59                     60
                      A                      A                      A
 Frequencies --    677.1278               679.5118               681.6718
 Red. masses --      7.4734                 6.8157                11.6953
 Frc consts  --      2.0189                 1.8542                 3.2019
 IR Inten    --      2.5159                55.4032                55.8585

                     61                     62                     63
                      A                      A                      A
 Frequencies --    712.0250               716.9983               730.0445
 Red. masses --      2.5262                 8.8964                 5.7345
 Frc consts  --      0.7546                 2.6946                 1.8007
 IR Inten    --     26.7172                 8.2887                80.1047

                     64                     65                     66
                      A                      A                      A
 Frequencies --    799.0715               830.6630               840.8242
 Red. masses --      9.8994                 4.5587                 7.4546
 Frc consts  --      3.7242                 1.8533                 3.1052
 IR Inten    --    585.9483                96.3211                66.3484

                     67                     68                     69
                      A                      A                      A
 Frequencies --    862.6734               873.8817               921.5186
 Red. masses --     11.9248                 4.1915                 1.7192
 Frc consts  --      5.2287                 1.8859                 0.8602
 IR Inten    --     28.1793                40.7268                76.0281

                     70                     71                     72
                      A                      A                      A
 Frequencies --    927.5505               952.0558               967.0840
 Red. masses --      2.5813                 1.4166                 4.5411
 Frc consts  --      1.3085                 0.7565                 2.5023
 IR Inten    --     11.8622                 7.0792                 8.1087

                     73                     74                     75
                      A                      A                      A
 Frequencies --    969.4126               978.1013              1006.0141
 Red. masses --      1.3871                 4.3133                 4.2302
 Frc consts  --      0.7680                 2.4313                 2.5224
 IR Inten    --      6.6142                37.0554                53.4947

                     76                     77                     78
                      A                      A                      A
 Frequencies --   1019.9714              1023.9146              1044.3007
 Red. masses --      6.2583                 4.4222                 3.4630
 Frc consts  --      3.8360                 2.7316                 2.2251
 IR Inten    --      2.2536                15.9759               139.2608

                     79                     80                     81
                      A                      A                      A
 Frequencies --   1084.7050              1112.5593              1122.1252
 Red. masses --      3.2040                11.4302                 3.0677
 Frc consts  --      2.2211                 8.3359                 2.2759
 IR Inten    --     19.9695                61.0903               138.5304

                     82                     83                     84
                      A                      A                      A
 Frequencies --   1126.2379              1128.6028              1135.5309
 Red. masses --      4.3246                 2.8877                 3.8318
 Frc consts  --      3.2319                 2.1671                 2.9110
 IR Inten    --    185.1549                19.0565               286.7613

                     85                     86                     87
                      A                      A                      A
 Frequencies --   1141.5300              1151.3154              1152.0104
 Red. masses --      2.0394                 3.1150                 3.3152
 Frc consts  --      1.5658                 2.4327                 2.5922
 IR Inten    --     33.5099               164.9546               296.7375

                     88                     89                     90
                      A                      A                      A
 Frequencies --   1159.1355              1169.2217              1179.0214
 Red. masses --      3.6930                10.0881                 3.6656
 Frc consts  --      2.9234                 8.1256                 3.0022
 IR Inten    --    208.7903               414.8904               100.9000

                     91                     92                     93
                      A                      A                      A
 Frequencies --   1188.3511              1188.8067              1191.0551
 Red. masses --      1.8335                 8.7013                 3.2756
 Frc consts  --      1.5255                 7.2453                 2.7378
 IR Inten    --     99.5003               264.4705               154.9882

                     94                     95                     96
                      A                      A                      A
 Frequencies --   1193.5534              1194.5200              1197.3031
 Red. masses --      1.3837                 1.4214                 1.5350
 Frc consts  --      1.1614                 1.1950                 1.2965
 IR Inten    --     11.7125                 6.5775                39.5409

                     97                     98                     99
                      A                      A                      A
 Frequencies --   1198.4753              1216.3901              1223.9021
 Red. masses --      1.4517                 7.3984                 6.0602
 Frc consts  --      1.2285                 6.4496                 5.3485
 IR Inten    --     50.1749               160.9214               298.8626

                    100                    101                    102
                      A                      A                      A
 Frequencies --   1224.4837              1231.7940              1239.4865
 Red. masses --      1.4039                 1.4894                 1.6772
 Frc consts  --      1.2402                 1.3315                 1.5182
 IR Inten    --     27.9540                28.3446                15.1901

                    103                    104                    105
                      A                      A                      A
 Frequencies --   1247.0994              1275.9958              1296.3059
 Red. masses --      1.6154                 1.7076                 3.4573
 Frc consts  --      1.4802                 1.6381                 3.4230
 IR Inten    --     25.3476                 6.7793               806.7861

                    106                    107                    108
                      A                      A                      A
 Frequencies --   1310.9032              1317.4243              1320.2125
 Red. masses --     10.2696                 1.4455                 1.6242
 Frc consts  --     10.3979                 1.4781                 1.6680
 IR Inten    --    244.6572                 4.1220                69.9180

                    109                    110                    111
                      A                      A                      A
 Frequencies --   1349.9998              1355.4859              1375.7638
 Red. masses --      1.2636                 1.3051                 3.6398
 Frc consts  --      1.3569                 1.4128                 4.0590
 IR Inten    --      5.7884                 8.8740                 0.3422

                    112                    113                    114
                      A                      A                      A
 Frequencies --   1379.7602              1381.9459              1386.8660
 Red. masses --      1.3289                 4.0160                 1.2437
 Frc consts  --      1.4906                 4.5188                 1.4094
 IR Inten    --     39.3844               198.1194                 5.5617

                    115                    116                    117
                      A                      A                      A
 Frequencies --   1404.0358              1411.0640              1428.6163
 Red. masses --      1.2702                 1.3707                 1.2986
 Frc consts  --      1.4753                 1.6080                 1.5615
 IR Inten    --      2.7863                15.6489                 7.5823

                    118                    119                    120
                      A                      A                      A
 Frequencies --   1436.3066              1445.7094              1454.5226
 Red. masses --      1.4011                 1.3048                 1.3206
 Frc consts  --      1.7030                 1.6068                 1.6462
 IR Inten    --     29.6225                15.6548                12.9571

                    121                    122                    123
                      A                      A                      A
 Frequencies --   1497.8870              1501.3071              1504.8777
 Red. masses --      3.6819                 1.1045                 1.1618
 Frc consts  --      4.8672                 1.4668                 1.5502
 IR Inten    --      6.8791                 2.8347                 0.8146

                    124                    125                    126
                      A                      A                      A
 Frequencies --   1505.4513              1506.6417              1509.1085
 Red. masses --      4.0911                 1.1576                 1.1322
 Frc consts  --      5.4629                 1.5482                 1.5193
 IR Inten    --      1.3026                 1.7083                 3.7407

                    127                    128                    129
                      A                      A                      A
 Frequencies --   1517.4132              1519.3912              1520.1422
 Red. masses --      1.0521                 1.0564                 1.0543
 Frc consts  --      1.4273                 1.4368                 1.4355
 IR Inten    --      2.6020                 3.1783                 7.3924

                    130                    131                    132
                      A                      A                      A
 Frequencies --   1525.6294              1527.1103              1536.6738
 Red. masses --      1.1288                 1.0783                 1.0541
 Frc consts  --      1.5479                 1.4816                 1.4666
 IR Inten    --      4.5044                 5.2378                12.1470

                    133                    134                    135
                      A                      A                      A
 Frequencies --   1544.6915              1545.8342              1548.2771
 Red. masses --      1.0514                 1.0503                 1.0578
 Frc consts  --      1.4781                 1.4787                 1.4941
 IR Inten    --      8.7102                 6.8655                 9.3563

                    136                    137                    138
                      A                      A                      A
 Frequencies --   1659.2043              1681.4103              3025.7742
 Red. masses --      6.0748                 5.8117                 1.0812
 Frc consts  --      9.8533                 9.6805                 5.8323
 IR Inten    --     17.6107                21.6735                22.4835

                    139                    140                    141
                      A                      A                      A
 Frequencies --   3039.1472              3040.0140              3041.9107
 Red. masses --      1.0380                 1.0393                 1.0368
 Frc consts  --      5.6486                 5.6588                 5.6527
 IR Inten    --    103.1828                31.5829                57.6178

                    142                    143                    144
                      A                      A                      A
 Frequencies --   3042.6439              3057.4411              3058.9225
 Red. masses --      1.0374                 1.0831                 1.0786
 Frc consts  --      5.6586                 5.9652                 5.9465
 IR Inten    --     63.5568                18.9564                 6.7018

                    145                    146                    147
                      A                      A                      A
 Frequencies --   3072.2998              3081.2409              3096.4563
 Red. masses --      1.0678                 1.0846                 1.1065
 Frc consts  --      5.9382                 6.0671                 6.2507
 IR Inten    --     39.9091                71.1194                63.3850

                    148                    149                    150
                      A                      A                      A
 Frequencies --   3109.9159              3114.6510              3116.9681
 Red. masses --      1.0997                 1.0997                 1.0945
 Frc consts  --      6.2664                 6.2856                 6.2653
 IR Inten    --     48.5842                55.2316                49.3234

                    151                    152                    153
                      A                      A                      A
 Frequencies --   3137.1397              3152.5124              3157.0951
 Red. masses --      1.1012                 1.1037                 1.1041
 Frc consts  --      6.3856                 6.4626                 6.4838
 IR Inten    --     21.1251                49.1128                39.4172

                    154                    155                    156
                      A                      A                      A
 Frequencies --   3158.1018              3168.9893              3175.1960
 Red. masses --      1.1052                 1.0994                 1.0888
 Frc consts  --      6.4943                 6.5050                 6.4674
 IR Inten    --     37.9112                32.0017                 8.9356

                    157                    158                    159
                      A                      A                      A
 Frequencies --   3257.6202              3261.5397              3266.0318
 Red. masses --      1.0919                 1.0920                 1.0919
 Frc consts  --      6.8270                 6.8439                 6.8626
 IR Inten    --      1.1314                 7.1024                 4.5183

 - Thermochemistry -
 -------------------
 Temperature   298.150 Kelvin.  Pressure   1.00000 Atm.
 Atom     1 has atomic number  6 and mass  12.00000

 Molecular mass:   512.09396 amu.
 Principal axes and moments of inertia in atomic units:
                           1         2         3
     Eigenvalues --  ******************************
           X            0.99994  -0.00116   0.01086
           Y            0.00032   0.99702   0.07718
           Z           -0.01092  -0.07717   0.99696
 This molecule is an asymmetric top.
 Rotational symmetry number  1.
 Warning -- assumption of classical behavior for rotation
           may cause significant error
 Rotational temperatures (Kelvin)      0.00722     0.00387     0.00355
 Rotational constants (GHZ):           0.15050     0.08059     0.07402
 Zero-point vibrational energy    1085364.2 (Joules/Mol)
                                  259.40828 (Kcal/Mol)
 Warning -- explicit consideration of  56 degrees of freedom as
           vibrations may cause significant error
 Vibrational temperatures:     17.28    28.80    32.66    39.93    56.13
          (Kelvin)             62.87    75.17    79.59    86.62   100.73
                              106.98   119.12   122.62   144.70   147.55
                              162.54   171.17   217.46   225.62   232.94
                              244.29   254.73   268.79   275.44   287.42
                              326.50   342.50   354.50   366.48   372.74
                              406.14   414.70   419.86   423.20   452.67
                              465.50   496.17   507.61   516.20   527.16
                              594.53   604.26   641.28   650.77   664.76
                              678.03   710.00   719.17   752.28   759.55
                              776.33   816.92   818.24   832.39   873.64
                              884.90   906.88   974.24   977.67   980.77
                             1024.45  1031.60  1050.37  1149.69  1195.14
                             1209.76  1241.19  1257.32  1325.86  1334.54
                             1369.80  1391.42  1394.77  1407.27  1447.43
                             1467.51  1473.18  1502.52  1560.65  1600.72
                             1614.49  1620.41  1623.81  1633.78  1642.41
                             1656.49  1657.49  1667.74  1682.25  1696.35
                             1709.77  1710.43  1713.66  1717.26  1718.65
                             1722.65  1724.34  1750.11  1760.92  1761.76
                             1772.28  1783.34  1794.30  1835.87  1865.10
                             1886.10  1895.48  1899.49  1942.35  1950.24
                             1979.42  1985.17  1988.31  1995.39  2020.09
                             2030.21  2055.46  2066.52  2080.05  2092.73
                             2155.13  2160.05  2165.18  2166.01  2167.72
                             2171.27  2183.22  2186.06  2187.15  2195.04
                             2197.17  2210.93  2222.47  2224.11  2227.63
                             2387.22  2419.17  4353.41  4372.65  4373.90
                             4376.63  4377.69  4398.98  4401.11  4420.35
                             4433.22  4455.11  4474.48  4481.29  4484.62
                             4513.64  4535.76  4542.36  4543.80  4559.47
                             4568.40  4686.99  4692.63  4699.09

 Zero-point correction=                           0.413393 (Hartree/Particle)
 Thermal correction to Energy=                    0.446974
 Thermal correction to Enthalpy=                  0.447918
 Thermal correction to Gibbs Free Energy=         0.343941
 Sum of electronic and zero-point Energies=          -2296.938178
 Sum of electronic and thermal Energies=             -2296.904597
 Sum of electronic and thermal Enthalpies=           -2296.903653
 Sum of electronic and thermal Free Energies=        -2297.007630

                     E (Thermal)             CV                S
                      KCal/Mol        Cal/Mol-Kelvin    Cal/Mol-Kelvin
 Total                  280.481            120.752            218.839
 Electronic               0.000              0.000              0.000
 Translational            0.889              2.981             44.587
 Rotational               0.889              2.981             37.124
 Vibrational            278.703            114.790            137.128
 Vibration     1          0.593              1.987              7.647
 Vibration     2          0.593              1.986              6.632
 Vibration     3          0.593              1.985              6.383
 Vibration     4          0.593              1.984              5.984
 Vibration     5          0.594              1.981              5.309
 Vibration     6          0.595              1.980              5.084
 Vibration     7          0.596              1.977              4.731
 Vibration     8          0.596              1.975              4.618
 Vibration     9          0.597              1.973              4.451
 Vibration    10          0.598              1.968              4.153
 Vibration    11          0.599              1.966              4.035
 Vibration    12          0.600              1.961              3.824
 Vibration    13          0.601              1.959              3.767
 Vibration    14          0.604              1.949              3.443
 Vibration    15          0.605              1.947              3.405
 Vibration    16          0.607              1.939              3.217
 Vibration    17          0.609              1.934              3.117
 Vibration    18          0.619              1.901              2.658
 Vibration    19          0.620              1.895              2.588
 Vibration    20          0.622              1.889              2.527
 Vibration    21          0.625              1.880              2.438
 Vibration    22          0.628              1.871              2.359
 Vibration    23          0.632              1.858              2.259
 Vibration    24          0.634              1.852              2.214
 Vibration    25          0.638              1.840              2.135
 Vibration    26          0.651              1.800              1.903
 Vibration    27          0.656              1.782              1.817
 Vibration    28          0.661              1.769              1.756
 Vibration    29          0.665              1.755              1.698
 Vibration    30          0.668              1.747              1.668
 Vibration    31          0.681              1.706              1.520
 Vibration    32          0.685              1.696              1.484
 Vibration    33          0.687              1.689              1.463
 Vibration    34          0.689              1.685              1.450
 Vibration    35          0.702              1.646              1.338
 Vibration    36          0.708              1.628              1.292
 Vibration    37          0.723              1.586              1.190
 Vibration    38          0.729              1.569              1.154
 Vibration    39          0.734              1.557              1.127
 Vibration    40          0.739              1.541              1.095
 Vibration    41          0.777              1.442              0.915
 Vibration    42          0.783              1.427              0.892
 Vibration    43          0.805              1.370              0.809
 Vibration    44          0.811              1.356              0.789
 Vibration    45          0.820              1.334              0.760
 Vibration    46          0.828              1.314              0.734
 Vibration    47          0.849              1.264              0.675
 Vibration    48          0.855              1.250              0.659
 Vibration    49          0.878              1.199              0.603
 Vibration    50          0.883              1.188              0.592
 Vibration    51          0.895              1.163              0.566
 Vibration    52          0.924              1.101              0.509
 Vibration    53          0.925              1.099              0.507
 Vibration    54          0.935              1.078              0.488
 Vibration    55          0.966              1.017              0.437
 Vibration    56          0.975              1.000              0.425

                           ! Non-Optimized Parameters !
 Normal termination of Gaussian 16 at Sat Jun 15 09:37:27 2019.
