 Gaussian 16, Revision A.03,
 Gaussian 16:  AS64L-G16RevA.03 25-Dec-2016

 ----------------------------------------------------------------------
 #p opt freq=noraman pop=none 6-31g* scrf=(pcm,solvent=tetrahydrofuran)
  b98 extrabasis
 ----------------------------------------------------------------------

 -----
 title
 -----
 Symbolic Z-matrix:
 Charge =  0 Multiplicity = 1

 SCF Done:  E(RB98) =  -2297.35588941     A.U. after   13 cycles
 SCF Done:  E(RB98) =  -2297.35588933     A.U. after    6 cycles
 SCF Done:  E(RB98) =  -2297.35588934     A.U. after    6 cycles
 SCF Done:  E(RB98) =  -2297.35588946     A.U. after    6 cycles
 Optimization completed.
    -- Stationary point found.
 Normal termination of Gaussian 16 at Sat Jun 15 07:55:56 2019.

 ----------------------------------------------------------------
 #P Geom=AllCheck Guess=TCheck SCRF=Check GenChk RB98/ChkBas Freq
 ----------------------------------------------------------------

 Structure from the checkpoint file:  "/scratch/users/ekwan/clay_new-glu_gluC6-bisCF3-sm-b98-custom-pcm_thf/Gau-21258.chk"
 -----
 title
 -----
 Charge =  0 Multiplicity = 1

                         Standard orientation:
 ---------------------------------------------------------------------
 Center     Atomic      Atomic             Coordinates (Angstroms)
 Number     Number       Type             X           Y           Z
 ---------------------------------------------------------------------
      1          6           0        3.523973   -0.204106    0.742018
      2          6           0        3.374027   -0.477786   -0.764534
      3          6           0        1.894861   -0.380002   -1.206996
      4          6           0        1.338254    1.087623    0.606798
      5          6           0        2.791399    1.095214    1.116328
      6          1           0        1.791644   -0.432586   -2.292407
      7          1           0        3.899938    0.327669   -1.305146
      8          1           0        3.079827   -1.033311    1.313245
      9          1           0        0.777866    0.309863    1.147153
     10          1           0        3.317663    1.943628    0.657065
     11          8           0        1.289841    0.800648   -0.808549
     12          8           0        1.216028   -1.544022   -0.633974
     13          8           0        3.948122   -1.725855   -1.068514
     14          8           0        4.889826   -0.045556    1.083415
     15          8           0        2.742167    1.238233    2.525823
     16          6           0        0.620591    2.420601    0.847048
     17          1           0        0.507782    2.531357    1.930803
     18          1           0       -0.381984    2.376840    0.395523
     19          8           0        1.322111    3.563989    0.400704
     20         16           0       -0.086706   -2.167717   -1.379743
     21          8           0       -0.177623   -3.530031   -0.875871
     22          8           0        0.014510   -1.899485   -2.811814
     23          6           0       -1.465666   -1.223717   -0.717547
     24          6           0       -2.115579   -1.692760    0.425191
     25          6           0       -1.850455   -0.044876   -1.358879
     26          6           0       -3.185424   -0.951216    0.934991
     27          1           0       -1.798420   -2.615788    0.899563
     28          6           0       -2.915332    0.685328   -0.825546
     29          1           0       -1.337175    0.293120   -2.252644
     30          6           0       -3.585053    0.237239    0.317367
     31          1           0       -4.414140    0.808860    0.721714
     32          6           0        4.343844   -1.885337   -2.425290
     33          1           0        3.482603   -1.919017   -3.107656
     34          1           0        5.018850   -1.074886   -2.737858
     35          1           0        4.874100   -2.839346   -2.483614
     36          6           0        5.505792   -1.201017    1.636023
     37          1           0        6.536138   -0.919231    1.873976
     38          1           0        4.999730   -1.516211    2.561230
     39          1           0        5.510510   -2.036156    0.925447
     40          6           0        3.620026    2.227087    3.048112
     41          1           0        3.470667    2.234836    4.132211
     42          1           0        4.667600    1.987595    2.826415
     43          1           0        3.380938    3.222488    2.645444
     44          6           0        1.133939    3.886003   -0.970513
     45          1           0        1.553267    4.886247   -1.117491
     46          1           0        0.063715    3.904198   -1.228101
     47          1           0        1.643497    3.177844   -1.636087
     48          6           0       -3.953430   -1.472722    2.131819
     49          9           0       -3.165795   -2.197645    2.945442
     50          9           0       -4.971923   -2.267065    1.749138
     51          9           0       -4.481001   -0.468747    2.854833
     52          6           0       -3.301048    2.005786   -1.457026
     53          9           0       -2.595520    3.026320   -0.917265
     54          9           0       -4.601539    2.285796   -1.271564
     55          9           0       -3.058166    2.014011   -2.778231
 ---------------------------------------------------------------------

 SCF Done:  E(RB98) =  -2297.35588946     A.U. after    1 cycles

 Isotropic polarizability for W=    0.000000      283.70 Bohr**3.
 End of Minotr F.D. properties file   721 does not exist.

                      1                      2                      3
                      A                      A                      A
 Frequencies --     13.0004                18.8043                21.2330
 Red. masses --      9.3530                 6.8155                15.8410
 Frc consts  --      0.0009                 0.0014                 0.0042
 IR Inten    --      0.1100                 0.3649                 0.0218

                      4                      5                      6
                      A                      A                      A
 Frequencies --     25.4694                35.3665                39.1261
 Red. masses --     11.1138                 3.6353                 5.0606
 Frc consts  --      0.0042                 0.0027                 0.0046
 IR Inten    --      0.0668                 1.9835                 0.3143

                      7                      8                      9
                      A                      A                      A
 Frequencies --     50.0957                53.2086                56.6749
 Red. masses --      4.6361                 6.7130                 3.3996
 Frc consts  --      0.0069                 0.0112                 0.0064
 IR Inten    --      1.4944                 0.3602                 1.6571

                     10                     11                     12
                      A                      A                      A
 Frequencies --     64.4686                71.6599                81.0173
 Red. masses --      3.0757                 3.8345                 3.3173
 Frc consts  --      0.0075                 0.0116                 0.0128
 IR Inten    --      8.2809                 0.5267                 0.9335

                     13                     14                     15
                      A                      A                      A
 Frequencies --     83.9368                99.6361               101.2238
 Red. masses --      2.5767                12.2441                 7.0885
 Frc consts  --      0.0107                 0.0716                 0.0428
 IR Inten    --      4.8996                 2.8638                 4.4184

                     16                     17                     18
                      A                      A                      A
 Frequencies --    110.7896               116.9588               151.5345
 Red. masses --      2.7854                 5.6634                 6.8902
 Frc consts  --      0.0201                 0.0456                 0.0932
 IR Inten    --      2.4775                 2.4161                 0.1306

                     19                     20                     21
                      A                      A                      A
 Frequencies --    153.7793               160.8476               166.9711
 Red. masses --      1.4105                 2.0226                 2.6857
 Frc consts  --      0.0197                 0.0308                 0.0441
 IR Inten    --      0.1650                 0.9071                 0.9633

                     22                     23                     24
                      A                      A                      A
 Frequencies --    173.9778               184.1295               187.8117
 Red. masses --      1.6039                 2.7583                 2.0938
 Frc consts  --      0.0286                 0.0551                 0.0435
 IR Inten    --      2.7347                 6.1490                 1.0991

                     25                     26                     27
                      A                      A                      A
 Frequencies --    195.5846               223.1816               235.6657
 Red. masses --      1.8279                 3.2109                12.1520
 Frc consts  --      0.0412                 0.0942                 0.3976
 IR Inten    --      0.1810                11.2173                 0.1016

                     28                     29                     30
                      A                      A                      A
 Frequencies --    242.9337               252.3010               256.4154
 Red. masses --      4.3844                 3.9184                 4.9884
 Frc consts  --      0.1525                 0.1470                 0.1932
 IR Inten    --      5.5667                 9.8376                12.4842

                     31                     32                     33
                      A                      A                      A
 Frequencies --    280.3437               286.1225               289.1934
 Red. masses --     11.2357                 5.3062                 8.6915
 Frc consts  --      0.5203                 0.2559                 0.4283
 IR Inten    --      2.9423                11.2294                 3.9397

                     34                     35                     36
                      A                      A                      A
 Frequencies --    291.8321               313.5160               321.6568
 Red. masses --      8.3056                 5.4508                 4.2136
 Frc consts  --      0.4168                 0.3157                 0.2569
 IR Inten    --      8.7365                 0.2483                 5.2794

                     37                     38                     39
                      A                      A                      A
 Frequencies --    341.9465               351.0431               355.1619
 Red. masses --      7.0804                 7.0908                 4.4232
 Frc consts  --      0.4878                 0.5148                 0.3287
 IR Inten    --      0.6649                 5.6170                 5.1889

                     40                     41                     42
                      A                      A                      A
 Frequencies --    364.7428               410.3687               416.9646
 Red. masses --      9.6801                10.1673                 8.7744
 Frc consts  --      0.7588                 1.0088                 0.8988
 IR Inten    --     15.9935                15.3097                 6.7422

                     43                     44                     45
                      A                      A                      A
 Frequencies --    440.4884               448.8626               461.4932
 Red. masses --      2.2048                 5.0963                 8.5067
 Frc consts  --      0.2521                 0.6050                 1.0674
 IR Inten    --      7.3369                14.9042                16.3176

                     46                     47                     48
                      A                      A                      A
 Frequencies --    466.8621               491.4340               500.1596
 Red. masses --      4.1958                 8.0681                11.9009
 Frc consts  --      0.5388                 1.1480                 1.7541
 IR Inten    --     10.8496                21.6472                 0.6885

                     49                     50                     51
                      A                      A                      A
 Frequencies --    520.7422               527.2787               537.2107
 Red. masses --      4.6834                11.2041                 4.7439
 Frc consts  --      0.7483                 1.8353                 0.8066
 IR Inten    --     35.2528                29.7689                16.6125

                     52                     53                     54
                      A                      A                      A
 Frequencies --    565.0680               568.0334               577.0021
 Red. masses --      3.7841                14.8388                11.4802
 Frc consts  --      0.7119                 2.8210                 2.2519
 IR Inten    --     40.3033                46.7139               249.7997

                     55                     56                     57
                      A                      A                      A
 Frequencies --    603.4014               611.7351               627.4164
 Red. masses --      6.7715                 8.1657                 5.8020
 Frc consts  --      1.4526                 1.8004                 1.3457
 IR Inten    --     41.0973                 3.0336                13.2113

                     58                     59                     60
                      A                      A                      A
 Frequencies --    672.3893               675.6617               680.9579
 Red. masses --      7.7585                 6.3710                12.8332
 Frc consts  --      2.0667                 1.7136                 3.5061
 IR Inten    --      1.5269                53.8653                57.7770

                     61                     62                     63
                      A                      A                      A
 Frequencies --    706.7128               715.7991               727.6140
 Red. masses --      2.6220                 7.6101                 6.4340
 Frc consts  --      0.7716                 2.2973                 2.0069
 IR Inten    --     28.1961                18.3789                69.8442

                     64                     65                     66
                      A                      A                      A
 Frequencies --    796.7323               827.1601               833.8207
 Red. masses --      9.4710                 5.0647                 6.4144
 Frc consts  --      3.5422                 2.0417                 2.6276
 IR Inten    --    538.1197               142.8041                49.9766

                     67                     68                     69
                      A                      A                      A
 Frequencies --    857.3750               870.9898               916.1348
 Red. masses --     12.0024                 4.0559                 1.5751
 Frc consts  --      5.1983                 1.8129                 0.7789
 IR Inten    --     22.5198                43.9710                74.0837

                     70                     71                     72
                      A                      A                      A
 Frequencies --    924.5845               944.6369               958.0634
 Red. masses --      2.7982                 1.3912                 1.3640
 Frc consts  --      1.4093                 0.7314                 0.7376
 IR Inten    --     19.8564                 2.6268                 6.4928

                     73                     74                     75
                      A                      A                      A
 Frequencies --    964.7410               976.1804              1000.3731
 Red. masses --      4.9010                 4.3173                 4.1317
 Frc consts  --      2.6876                 2.4239                 2.4361
 IR Inten    --      6.3360                43.4358                47.2659

                     76                     77                     78
                      A                      A                      A
 Frequencies --   1010.0390              1020.8646              1040.7018
 Red. masses --      6.3017                 4.4869                 3.5190
 Frc consts  --      3.7878                 2.7551                 2.2455
 IR Inten    --      1.0270                15.4480               128.8442

                     79                     80                     81
                      A                      A                      A
 Frequencies --   1079.7879              1109.8578              1116.5537
 Red. masses --      3.2833                12.0276                 2.9596
 Frc consts  --      2.2555                 8.7290                 2.1739
 IR Inten    --     17.1592                86.8948                94.6694

                     82                     83                     84
                      A                      A                      A
 Frequencies --   1121.7130              1126.3742              1132.4259
 Red. masses --      2.7196                 2.5513                 3.2480
 Frc consts  --      2.0162                 1.9071                 2.4540
 IR Inten    --     25.2911                96.6693               207.8998

                     85                     86                     87
                      A                      A                      A
 Frequencies --   1134.3410              1149.8159              1152.8134
 Red. masses --      2.0403                 4.5090                 4.4815
 Frc consts  --      1.5468                 3.5122                 3.5091
 IR Inten    --     38.4983                35.5042               518.6463

                     88                     89                     90
                      A                      A                      A
 Frequencies --   1155.6156              1171.2187              1176.0074
 Red. masses --      4.2957                 9.4684                 3.6134
 Frc consts  --      3.3800                 7.6525                 2.9443
 IR Inten    --    274.0378               413.3900                89.7520

                     91                     92                     93
                      A                      A                      A
 Frequencies --   1183.1955              1184.8733              1186.8425
 Red. masses --      1.4828                 3.3084                 1.2958
 Frc consts  --      1.2230                 2.7366                 1.0754
 IR Inten    --     18.5122               142.1430                 4.7545

                     94                     95                     96
                      A                      A                      A
 Frequencies --   1188.1997              1190.0708              1191.4952
 Red. masses --     12.0478                 1.6725                 1.4912
 Frc consts  --     10.0216                 1.3956                 1.2473
 IR Inten    --    353.7590                17.0179                26.8055

                     97                     98                     99
                      A                      A                      A
 Frequencies --   1192.9228              1215.6655              1216.8652
 Red. masses --      1.7228                 7.8289                 1.4052
 Frc consts  --      1.4445                 6.8168                 1.2259
 IR Inten    --     84.1124               165.9407                56.9809

                    100                    101                    102
                      A                      A                      A
 Frequencies --   1222.2197              1225.5265              1233.6356
 Red. masses --      6.7304                 1.4913                 1.7135
 Frc consts  --      5.9236                 1.3197                 1.5364
 IR Inten    --    289.3208                28.3976                15.2458

                    103                    104                    105
                      A                      A                      A
 Frequencies --   1239.8399              1266.0933              1284.4639
 Red. masses --      1.6248                 1.7439                 3.5392
 Frc consts  --      1.4716                 1.6471                 3.4403
 IR Inten    --     31.0994                 7.9187               791.4838

                    106                    107                    108
                      A                      A                      A
 Frequencies --   1305.3871              1311.9183              1329.9971
 Red. masses --      1.4457                 1.5023                13.7158
 Frc consts  --      1.4514                 1.5234                14.2946
 IR Inten    --      1.9942                 6.3685               338.4362

                    109                    110                    111
                      A                      A                      A
 Frequencies --   1338.0513              1346.0439              1366.0311
 Red. masses --      1.4257                 1.1803                 5.6821
 Frc consts  --      1.5039                 1.2600                 6.2471
 IR Inten    --      3.3566                13.6660               225.5796

                    112                    113                    114
                      A                      A                      A
 Frequencies --   1369.0018              1372.2268              1375.3544
 Red. masses --      3.8085                 1.2425                 1.2193
 Frc consts  --      4.2055                 1.3784                 1.3589
 IR Inten    --      2.5801                14.9918                 8.7680

                    115                    116                    117
                      A                      A                      A
 Frequencies --   1392.3133              1396.2677              1415.9607
 Red. masses --      1.2410                 1.4524                 1.2995
 Frc consts  --      1.4174                 1.6683                 1.5350
 IR Inten    --      0.5232                14.4428                 3.9632

                    118                    119                    120
                      A                      A                      A
 Frequencies --   1423.8895              1433.8330              1443.3470
 Red. masses --      1.3493                 1.2859                 1.3177
 Frc consts  --      1.6118                 1.5576                 1.6173
 IR Inten    --     37.6056                11.6007                13.4592

                    121                    122                    123
                      A                      A                      A
 Frequencies --   1482.6189              1490.2793              1491.6703
 Red. masses --      3.5650                 3.7920                 1.1098
 Frc consts  --      4.6171                 4.9619                 1.4549
 IR Inten    --      8.1564                 1.2570                 3.2188

                    124                    125                    126
                      A                      A                      A
 Frequencies --   1496.6597              1498.6273              1502.3502
 Red. masses --      1.1622                 1.1605                 1.1228
 Frc consts  --      1.5338                 1.5357                 1.4932
 IR Inten    --      0.0781                 1.3470                 4.8759

                    127                    128                    129
                      A                      A                      A
 Frequencies --   1509.9448              1511.0993              1511.2065
 Red. masses --      1.0522                 1.0558                 1.0556
 Frc consts  --      1.4135                 1.4204                 1.4204
 IR Inten    --      3.1628                11.5159                 1.2051

                    130                    131                    132
                      A                      A                      A
 Frequencies --   1515.5549              1520.6003              1529.0526
 Red. masses --      1.1284                 1.0819                 1.0516
 Frc consts  --      1.5271                 1.4739                 1.4486
 IR Inten    --      3.5236                 5.9462                12.2292

                    133                    134                    135
                      A                      A                      A
 Frequencies --   1535.9067              1536.6136              1538.1473
 Red. masses --      1.0506                 1.0499                 1.0598
 Frc consts  --      1.4603                 1.4606                 1.4773
 IR Inten    --      8.7117                 7.6416                 9.7901

                    136                    137                    138
                      A                      A                      A
 Frequencies --   1640.6621              1663.0763              3001.2290
 Red. masses --      5.9483                 5.7302                 1.0817
 Frc consts  --      9.4338                 9.3377                 5.7404
 IR Inten    --     14.6902                19.5580                24.8309

                    139                    140                    141
                      A                      A                      A
 Frequencies --   3015.8670              3016.8029              3017.0368
 Red. masses --      1.0360                 1.0384                 1.0374
 Frc consts  --      5.5521                 5.5683                 5.5638
 IR Inten    --     97.8899                78.2870                25.1665

                    142                    143                    144
                      A                      A                      A
 Frequencies --   3019.7109              3032.0230              3034.9080
 Red. masses --      1.0357                 1.0749                 1.0831
 Frc consts  --      5.5645                 5.8223                 5.8776
 IR Inten    --     67.0781                 8.9924                18.8026

                    145                    146                    147
                      A                      A                      A
 Frequencies --   3042.4805              3057.5922              3075.6707
 Red. masses --      1.0723                 1.0848                 1.1060
 Frc consts  --      5.8482                 5.9751                 6.1645
 IR Inten    --     49.9600                65.1584                63.4352

                    148                    149                    150
                      A                      A                      A
 Frequencies --   3087.0152              3091.3342              3095.5468
 Red. masses --      1.0997                 1.1019                 1.0950
 Frc consts  --      6.1742                 6.2039                 6.1824
 IR Inten    --     49.2047                54.8823                50.8764

                    151                    152                    153
                      A                      A                      A
 Frequencies --   3116.6288              3133.7525              3137.4175
 Red. masses --      1.0992                 1.1029                 1.1030
 Frc consts  --      6.2909                 6.3812                 6.3967
 IR Inten    --     21.3978                47.7275                39.6476

                    154                    155                    156
                      A                      A                      A
 Frequencies --   3138.7983              3146.6956              3150.1507
 Red. masses --      1.1044                 1.0888                 1.0988
 Frc consts  --      6.4106                 6.3520                 6.4245
 IR Inten    --     37.8860                16.0020                25.3270

                    157                    158                    159
                      A                      A                      A
 Frequencies --   3238.1427              3241.8830              3246.4211
 Red. masses --      1.0919                 1.0919                 1.0918
 Frc consts  --      6.7459                 6.7612                 6.7795
 IR Inten    --      1.4004                 6.9373                 5.2178

 - Thermochemistry -
 -------------------
 Temperature   298.150 Kelvin.  Pressure   1.00000 Atm.
 Atom     1 has atomic number  6 and mass  12.00000

 Molecular mass:   512.09396 amu.
 Principal axes and moments of inertia in atomic units:
                           1         2         3
     Eigenvalues --  ******************************
           X            0.99994  -0.00067   0.01064
           Y           -0.00025   0.99626   0.08646
           Z           -0.01066  -0.08646   0.99620
 This molecule is an asymmetric top.
 Rotational symmetry number  1.
 Warning -- assumption of classical behavior for rotation
           may cause significant error
 Rotational temperatures (Kelvin)      0.00719     0.00385     0.00356
 Rotational constants (GHZ):           0.14976     0.08012     0.07415
 Zero-point vibrational energy    1078425.4 (Joules/Mol)
                                  257.74986 (Kcal/Mol)
 Warning -- explicit consideration of  56 degrees of freedom as
           vibrations may cause significant error
 Vibrational temperatures:     18.70    27.06    30.55    36.64    50.88
          (Kelvin)             56.29    72.08    76.56    81.54    92.76
                              103.10   116.57   120.77   143.35   145.64
                              159.40   168.28   218.02   221.25   231.42
                              240.23   250.32   264.92   270.22   281.40
                              321.11   339.07   349.53   363.00   368.92
                              403.35   411.67   416.08   419.88   451.08
                              462.79   491.98   505.07   511.00   524.78
                              590.43   599.92   633.76   645.81   663.99
                              671.71   707.06   719.62   749.23   758.64
                              772.93   813.01   817.27   830.18   868.16
                              880.15   902.71   967.42   972.13   979.75
                             1016.80  1029.88  1046.87  1146.32  1190.10
                             1199.68  1233.57  1253.16  1318.11  1330.27
                             1359.12  1378.44  1388.05  1404.51  1439.31
                             1453.22  1468.80  1497.34  1553.57  1596.84
                             1606.47  1613.89  1620.60  1629.31  1632.06
                             1654.33  1658.64  1662.67  1685.12  1692.01
                             1702.35  1704.77  1707.60  1709.55  1712.25
                             1714.30  1716.35  1749.07  1750.80  1758.50
                             1763.26  1774.93  1783.85  1821.63  1848.06
                             1878.16  1887.56  1913.57  1925.16  1936.66
                             1965.41  1969.69  1974.33  1978.83  2003.23
                             2008.92  2037.25  2048.66  2062.97  2076.65
                             2133.16  2144.18  2146.18  2153.36  2156.19
                             2161.55  2172.47  2174.13  2174.29  2180.55
                             2187.80  2199.97  2209.83  2210.84  2213.05
                             2360.55  2392.80  4318.10  4339.16  4340.51
                             4340.84  4344.69  4362.40  4366.56  4377.45
                             4399.19  4425.20  4441.53  4447.74  4453.80
                             4484.13  4508.77  4514.04  4516.03  4527.39
                             4532.36  4658.97  4664.35  4670.88

 Zero-point correction=                           0.410751 (Hartree/Particle)
 Thermal correction to Energy=                    0.444555
 Thermal correction to Enthalpy=                  0.445499
 Thermal correction to Gibbs Free Energy=         0.340560
 Sum of electronic and zero-point Energies=          -2296.945139
 Sum of electronic and thermal Energies=             -2296.911334
 Sum of electronic and thermal Enthalpies=           -2296.910390
 Sum of electronic and thermal Free Energies=        -2297.015330

                     E (Thermal)             CV                S
                      KCal/Mol        Cal/Mol-Kelvin    Cal/Mol-Kelvin
 Total                  278.963            121.254            220.864
 Electronic               0.000              0.000              0.000
 Translational            0.889              2.981             44.587
 Rotational               0.889              2.981             37.133
 Vibrational            277.185            115.292            139.144
 Vibration     1          0.593              1.987              7.490
 Vibration     2          0.593              1.986              6.757
 Vibration     3          0.593              1.985              6.515
 Vibration     4          0.593              1.985              6.154
 Vibration     5          0.594              1.982              5.503
 Vibration     6          0.594              1.981              5.303
 Vibration     7          0.595              1.978              4.814
 Vibration     8          0.596              1.976              4.694
 Vibration     9          0.596              1.975              4.570
 Vibration    10          0.597              1.971              4.316
 Vibration    11          0.598              1.968              4.107
 Vibration    12          0.600              1.962              3.866
 Vibration    13          0.601              1.960              3.797
 Vibration    14          0.604              1.949              3.461
 Vibration    15          0.604              1.948              3.431
 Vibration    16          0.607              1.941              3.255
 Vibration    17          0.608              1.935              3.150
 Vibration    18          0.619              1.901              2.653
 Vibration    19          0.619              1.898              2.625
 Vibration    20          0.622              1.890              2.540
 Vibration    21          0.624              1.883              2.469
 Vibration    22          0.627              1.874              2.392
 Vibration    23          0.631              1.861              2.286
 Vibration    24          0.632              1.857              2.249
 Vibration    25          0.636              1.846              2.174
 Vibration    26          0.649              1.806              1.933
 Vibration    27          0.655              1.786              1.835
 Vibration    28          0.659              1.774              1.781
 Vibration    29          0.664              1.759              1.714
 Vibration    30          0.666              1.752              1.686
 Vibration    31          0.680              1.710              1.532
 Vibration    32          0.684              1.699              1.497
 Vibration    33          0.686              1.694              1.479
 Vibration    34          0.687              1.689              1.463
 Vibration    35          0.701              1.648              1.344
 Vibration    36          0.707              1.632              1.302
 Vibration    37          0.721              1.592              1.203
 Vibration    38          0.728              1.573              1.162
 Vibration    39          0.731              1.565              1.143
 Vibration    40          0.738              1.545              1.102
 Vibration    41          0.775              1.448              0.925
 Vibration    42          0.780              1.433              0.902
 Vibration    43          0.800              1.382              0.825
 Vibration    44          0.808              1.363              0.799
 Vibration    45          0.819              1.335              0.762
 Vibration    46          0.824              1.324              0.746
 Vibration    47          0.847              1.269              0.680
 Vibration    48          0.856              1.250              0.658
 Vibration    49          0.876              1.204              0.608
 Vibration    50          0.882              1.190              0.593
 Vibration    51          0.892              1.168              0.571
 Vibration    52          0.921              1.107              0.514
 Vibration    53          0.924              1.100              0.508
 Vibration    54          0.933              1.081              0.491
 Vibration    55          0.962              1.025              0.444
 Vibration    56          0.971              1.007              0.430

                           ! Non-Optimized Parameters !
 Normal termination of Gaussian 16 at Sat Jun 15 08:42:58 2019.
