 Gaussian 16, Revision A.03,
 Gaussian 16:  AS64L-G16RevA.03 25-Dec-2016

 ----------------------------------------------------------------------
 #p opt freq=noraman pop=none 6-31g* scrf=(pcm,solvent=tetrahydrofuran)
  bhandhlyp extrabasis
 ----------------------------------------------------------------------

 -----
 title
 -----
 Symbolic Z-matrix:
 Charge =  0 Multiplicity = 1

 SCF Done:  E(RBHandHLYP) =  -2297.14982277     A.U. after   13 cycles
 SCF Done:  E(RBHandHLYP) =  -2297.14982258     A.U. after    6 cycles
 SCF Done:  E(RBHandHLYP) =  -2297.14982236     A.U. after    7 cycles
 SCF Done:  E(RBHandHLYP) =  -2297.14982272     A.U. after    6 cycles
 Optimization completed.
    -- Stationary point found.
 Normal termination of Gaussian 16 at Sat Jun 15 08:04:13 2019.

 ----------------------------------------------------------------------
 #P Geom=AllCheck Guess=TCheck SCRF=Check GenChk RBHandHLYP/ChkBas Freq
 ----------------------------------------------------------------------

 Structure from the checkpoint file:  "/scratch/users/ekwan/clay_new-glu_gluC6-bisCF3-sm-bhandhlyp-custom-pcm_thf/Gau-61162.chk"
 -----
 title
 -----
 Charge =  0 Multiplicity = 1

                         Standard orientation:
 ---------------------------------------------------------------------
 Center     Atomic      Atomic             Coordinates (Angstroms)
 Number     Number       Type             X           Y           Z
 ---------------------------------------------------------------------
      1          6           0        3.467328   -0.223870    0.739408
      2          6           0        3.343366   -0.452757   -0.760154
      3          6           0        1.889493   -0.340011   -1.217346
      4          6           0        1.319963    1.075747    0.611505
      5          6           0        2.753033    1.061506    1.129127
      6          1           0        1.802054   -0.367532   -2.293653
      7          1           0        3.878678    0.354664   -1.264494
      8          1           0        3.006027   -1.053601    1.274505
      9          1           0        0.754877    0.297906    1.123672
     10          1           0        3.285916    1.904942    0.694730
     11          8           0        1.289332    0.821493   -0.795966
     12          8           0        1.198996   -1.495990   -0.686317
     13          8           0        3.907155   -1.684866   -1.087338
     14          8           0        4.816431   -0.100088    1.104549
     15          8           0        2.695246    1.179223    2.526662
     16          6           0        0.619934    2.396177    0.867929
     17          1           0        0.508087    2.496941    1.942260
     18          1           0       -0.373001    2.369646    0.420877
     19          8           0        1.330668    3.521391    0.428480
     20         16           0       -0.080797   -2.092698   -1.426486
     21          8           0       -0.168392   -3.456854   -0.977474
     22          8           0        0.016254   -1.784160   -2.833548
     23          6           0       -1.441053   -1.190738   -0.744507
     24          6           0       -2.087156   -1.693840    0.371372
     25          6           0       -1.829092   -0.002892   -1.339615
     26          6           0       -3.149228   -0.980409    0.900552
     27          1           0       -1.771261   -2.623469    0.810504
     28          6           0       -2.885855    0.699960   -0.787899
     29          1           0       -1.322307    0.362534   -2.214621
     30          6           0       -3.548446    0.216131    0.328429
     31          1           0       -4.372116    0.766727    0.747504
     32          6           0        4.342044   -1.812981   -2.421582
     33          1           0        3.511392   -1.799477   -3.125102
     34          1           0        5.041408   -1.019129   -2.680840
     35          1           0        4.844039   -2.769721   -2.496312
     36          6           0        5.403642   -1.261055    1.644303
     37          1           0        6.428419   -1.007099    1.891593
     38          1           0        4.888402   -1.572636    2.552699
     39          1           0        5.396506   -2.079548    0.930746
     40          6           0        3.579957    2.125564    3.080929
     41          1           0        3.425092    2.109296    4.154028
     42          1           0        4.613480    1.872599    2.861549
     43          1           0        3.366100    3.125783    2.706137
     44          6           0        1.113037    3.890009   -0.913060
     45          1           0        1.556432    4.870720   -1.046194
     46          1           0        0.046782    3.950770   -1.131513
     47          1           0        1.572132    3.191475   -1.607070
     48          6           0       -3.905137   -1.534077    2.071252
     49          9           0       -3.126385   -2.287491    2.843740
     50          9           0       -4.924617   -2.297386    1.677219
     51          9           0       -4.412741   -0.563264    2.827695
     52          6           0       -3.273481    2.023636   -1.374055
     53          9           0       -2.556747    3.019154   -0.838905
     54          9           0       -4.553773    2.305807   -1.153801
     55          9           0       -3.065071    2.059133   -2.686964
 ---------------------------------------------------------------------

 SCF Done:  E(RBHandHLYP) =  -2297.14982272     A.U. after    1 cycles

 Isotropic polarizability for W=    0.000000      262.90 Bohr**3.
 End of Minotr F.D. properties file   721 does not exist.

                      1                      2                      3
                      A                      A                      A
 Frequencies --     14.9650                18.9917                23.3316
 Red. masses --      8.9507                 6.6262                15.7495
 Frc consts  --      0.0012                 0.0014                 0.0051
 IR Inten    --      0.2090                 0.2328                 0.0288

                      4                      5                      6
                      A                      A                      A
 Frequencies --     27.6506                32.6461                39.7206
 Red. masses --     11.3861                 3.2078                 5.2282
 Frc consts  --      0.0051                 0.0020                 0.0049
 IR Inten    --      0.0279                 2.3272                 1.1480

                      7                      8                      9
                      A                      A                      A
 Frequencies --     48.2627                53.4535                56.5343
 Red. masses --      5.6125                 2.9852                 5.3444
 Frc consts  --      0.0077                 0.0050                 0.0101
 IR Inten    --      1.1044                 2.7911                 0.6637

                     10                     11                     12
                      A                      A                      A
 Frequencies --     63.5107                72.7693                80.4217
 Red. masses --      3.0808                 3.8050                 3.1474
 Frc consts  --      0.0073                 0.0119                 0.0120
 IR Inten    --      8.2259                 0.4376                 0.7562

                     13                     14                     15
                      A                      A                      A
 Frequencies --     84.1403               103.4609               106.0099
 Red. masses --      2.7607                 6.7887                 8.5991
 Frc consts  --      0.0115                 0.0428                 0.0569
 IR Inten    --      6.1329                 3.0569                 4.5521

                     16                     17                     18
                      A                      A                      A
 Frequencies --    110.2347               122.3026               156.9756
 Red. masses --      2.9340                 7.2551                 1.3103
 Frc consts  --      0.0210                 0.0639                 0.0190
 IR Inten    --      2.8758                 2.1888                 0.1941

                     19                     20                     21
                      A                      A                      A
 Frequencies --    158.4264               164.3733               172.4022
 Red. masses --      6.6067                 1.6605                 1.7603
 Frc consts  --      0.0977                 0.0264                 0.0308
 IR Inten    --      0.1727                 0.4129                 1.3719

                     22                     23                     24
                      A                      A                      A
 Frequencies --    180.6347               190.3604               195.3543
 Red. masses --      2.3295                 2.4504                 2.9505
 Frc consts  --      0.0448                 0.0523                 0.0663
 IR Inten    --      2.7508                 4.8544                 0.9193

                     25                     26                     27
                      A                      A                      A
 Frequencies --    200.8271               232.9906               246.3437
 Red. masses --      2.0660                 3.4905                12.1222
 Frc consts  --      0.0491                 0.1116                 0.4334
 IR Inten    --      0.5216                14.0385                 0.1219

                     28                     29                     30
                      A                      A                      A
 Frequencies --    254.1108               261.0237               269.1280
 Red. masses --      3.9991                 3.7613                 6.8871
 Frc consts  --      0.1521                 0.1510                 0.2939
 IR Inten    --      8.5971                 8.4943                12.2963

                     31                     32                     33
                      A                      A                      A
 Frequencies --    294.5065               297.8824               302.8873
 Red. masses --     11.2952                 5.2592                10.8684
 Frc consts  --      0.5772                 0.2750                 0.5875
 IR Inten    --      3.7357                 6.5699                 5.1039

                     34                     35                     36
                      A                      A                      A
 Frequencies --    307.3015               328.1527               334.9242
 Red. masses --      7.5471                 5.3346                 4.2384
 Frc consts  --      0.4199                 0.3385                 0.2801
 IR Inten    --     11.1241                 0.3854                 5.5465

                     37                     38                     39
                      A                      A                      A
 Frequencies --    358.2772               368.1814               371.0013
 Red. masses --      6.8264                 5.2430                 5.9986
 Frc consts  --      0.5163                 0.4187                 0.4865
 IR Inten    --      0.7361                 2.4750                 8.8824

                     40                     41                     42
                      A                      A                      A
 Frequencies --    385.4410               430.8048               437.7394
 Red. masses --      9.7523                 9.9384                 8.5771
 Frc consts  --      0.8536                 1.0868                 0.9683
 IR Inten    --     14.2469                17.4034                 6.7933

                     43                     44                     45
                      A                      A                      A
 Frequencies --    458.2137               470.9232               484.8696
 Red. masses --      2.2624                 4.6861                 7.7406
 Frc consts  --      0.2799                 0.6123                 1.0722
 IR Inten    --      7.8254                13.0030                11.5107

                     46                     47                     48
                      A                      A                      A
 Frequencies --    490.1348               516.6437               521.9272
 Red. masses --      4.5716                 7.5825                11.8364
 Frc consts  --      0.6471                 1.1925                 1.8997
 IR Inten    --     15.6606                24.0453                 0.6535

                     49                     50                     51
                      A                      A                      A
 Frequencies --    544.2821               554.5936               562.3386
 Red. masses --      4.4570                11.0448                 5.0841
 Frc consts  --      0.7779                 2.0015                 0.9472
 IR Inten    --     32.6296                43.1585                 9.8004

                     52                     53                     54
                      A                      A                      A
 Frequencies --    588.4789               593.7620               611.2606
 Red. masses --      3.8292                15.2330                11.8210
 Frc consts  --      0.7813                 3.1642                 2.6023
 IR Inten    --     42.3739                 7.9271               319.4199

                     55                     56                     57
                      A                      A                      A
 Frequencies --    634.6249               641.1057               659.9229
 Red. masses --      6.5682                 7.6274                 5.8873
 Frc consts  --      1.5586                 1.8471                 1.5106
 IR Inten    --     46.7923                13.4585                11.5467

                     58                     59                     60
                      A                      A                      A
 Frequencies --    706.2632               709.1718               717.4355
 Red. masses --      7.5985                12.7273                 5.6371
 Frc consts  --      2.2331                 3.7713                 1.7095
 IR Inten    --      1.1159                65.4721                18.4845

                     61                     62                     63
                      A                      A                      A
 Frequencies --    739.6731               749.4000               765.6396
 Red. masses --      2.4469                 8.7204                 6.2162
 Frc consts  --      0.7887                 2.8854                 2.1470
 IR Inten    --     37.6542                 6.7507                39.5455

                     64                     65                     66
                      A                      A                      A
 Frequencies --    863.0557               881.5633               898.7328
 Red. masses --      5.3940                 4.8839                12.2253
 Frc consts  --      2.3672                 2.2363                 5.8180
 IR Inten    --    101.6818                12.3851               103.5506

                     67                     68                     69
                      A                      A                      A
 Frequencies --    901.4961               926.4020               972.2231
 Red. masses --      8.9877                 4.6477                 2.1705
 Frc consts  --      4.3035                 2.3501                 1.2088
 IR Inten    --    460.3993               233.5547                71.1362

                     70                     71                     72
                      A                      A                      A
 Frequencies --    976.8568              1003.5331              1018.5237
 Red. masses --      1.8789                 1.4115                 3.8021
 Frc consts  --      1.0564                 0.8375                 2.3239
 IR Inten    --     13.9018                 4.3672                13.2977

                     73                     74                     75
                      A                      A                      A
 Frequencies --   1020.0205              1026.7554              1052.8775
 Red. masses --      1.4475                 4.0556                 6.2628
 Frc consts  --      0.8874                 2.5191                 4.0905
 IR Inten    --      4.9177                43.8401                 6.7317

                     76                     77                     78
                      A                      A                      A
 Frequencies --   1062.2567              1077.6115              1094.2211
 Red. masses --      4.1089                 3.9923                 3.5357
 Frc consts  --      2.7317                 2.7315                 2.4942
 IR Inten    --     51.3181                11.9208               157.0992

                     79                     80                     81
                      A                      A                      A
 Frequencies --   1136.4997              1168.0862              1170.9759
 Red. masses --      3.0368                10.3826                 2.7775
 Frc consts  --      2.3110                 8.3465                 2.2439
 IR Inten    --     24.0334                43.8568               123.2895

                     82                     83                     84
                      A                      A                      A
 Frequencies --   1177.8408              1179.4178              1184.6534
 Red. masses --      2.3346                 2.3934                 1.8804
 Frc consts  --      1.9083                 1.9615                 1.5548
 IR Inten    --     88.1137                15.4469                33.1458

                     85                     86                     87
                      A                      A                      A
 Frequencies --   1191.8685              1211.2256              1214.6964
 Red. masses --      2.7448                 4.2264                 3.2271
 Frc consts  --      2.2973                 3.6532                 2.8054
 IR Inten    --    233.9913               400.3076                81.5999

                     88                     89                     90
                      A                      A                      A
 Frequencies --   1220.9748              1231.2649              1233.1371
 Red. masses --      2.9563                 1.3020                 1.2730
 Frc consts  --      2.5966                 1.1630                 1.1405
 IR Inten    --    278.1953                15.2031                 7.0061

                     91                     92                     93
                      A                      A                      A
 Frequencies --   1235.7879              1239.2548              1245.7794
 Red. masses --      1.3206                 1.2750                 2.0117
 Frc consts  --      1.1882                 1.1536                 1.8395
 IR Inten    --      1.9277                 4.4154               145.1531

                     94                     95                     96
                      A                      A                      A
 Frequencies --   1247.6392              1253.5197              1263.3301
 Red. masses --      8.2268                 3.9600                 5.8337
 Frc consts  --      7.5450                 3.6662                 5.4856
 IR Inten    --    395.1924               116.0643               377.0845

                     97                     98                     99
                      A                      A                      A
 Frequencies --   1263.4345              1272.2863              1280.5914
 Red. masses --      6.8634                 1.6609                 7.3514
 Frc consts  --      6.4550                 1.5841                 7.1030
 IR Inten    --    118.8277               190.3538               109.5149

                    100                    101                    102
                      A                      A                      A
 Frequencies --   1282.3867              1292.0660              1294.5961
 Red. masses --      1.7028                 7.3857                 1.9394
 Frc consts  --      1.6499                 7.2646                 1.9150
 IR Inten    --     45.4854               352.0499                11.7213

                    103                    104                    105
                      A                      A                      A
 Frequencies --   1296.1118              1325.7911              1348.9228
 Red. masses --      1.9211                 1.7924                 2.4267
 Frc consts  --      1.9015                 1.8563                 2.6016
 IR Inten    --     80.1958                 9.3642                54.6045

                    106                    107                    108
                      A                      A                      A
 Frequencies --   1359.6429              1366.1419              1383.2384
 Red. masses --      3.6861                 1.4632                 8.4050
 Frc consts  --      4.0148                 1.6090                 9.4750
 IR Inten    --    810.5902                 4.0867               333.0816

                    109                    110                    111
                      A                      A                      A
 Frequencies --   1398.8314              1406.3753              1412.0070
 Red. masses --      1.1881                 2.2854                 1.4786
 Frc consts  --      1.3698                 2.6632                 1.7369
 IR Inten    --     20.4950                24.5427                 4.8913

                    112                    113                    114
                      A                      A                      A
 Frequencies --   1435.8832              1439.1309              1448.0682
 Red. masses --      1.2566                 1.2256                 5.8884
 Frc consts  --      1.5264                 1.4955                 7.2748
 IR Inten    --     17.3398                41.3122               186.6290

                    115                    116                    117
                      A                      A                      A
 Frequencies --   1458.8669              1469.3737              1482.8567
 Red. masses --      1.2815                 1.4237                 1.2999
 Frc consts  --      1.6069                 1.8111                 1.6841
 IR Inten    --      1.4723                17.1724                12.8109

                    118                    119                    120
                      A                      A                      A
 Frequencies --   1497.1963              1500.7732              1513.6476
 Red. masses --      1.5208                 1.3556                 1.4027
 Frc consts  --      2.0085                 1.7989                 1.8935
 IR Inten    --     31.7446                18.0756                12.8367

                    121                    122                    123
                      A                      A                      A
 Frequencies --   1550.2961              1555.1529              1555.7246
 Red. masses --      1.1036                 1.1809                 4.0111
 Frc consts  --      1.5628                 1.6827                 5.7198
 IR Inten    --      2.3054                 0.3752                 6.1933

                    124                    125                    126
                      A                      A                      A
 Frequencies --   1556.4982              1559.0899              1561.8118
 Red. masses --      1.1763                 1.1344                 4.4646
 Frc consts  --      1.6790                 1.6246                 6.4164
 IR Inten    --      1.4269                 4.2577                 0.6910

                    127                    128                    129
                      A                      A                      A
 Frequencies --   1566.2859              1567.5473              1568.0555
 Red. masses --      1.0528                 1.0583                 1.0539
 Frc consts  --      1.5217                 1.5322                 1.5268
 IR Inten    --      3.5723                 1.8834                 9.3738

                    130                    131                    132
                      A                      A                      A
 Frequencies --   1575.1849              1575.4660              1583.6326
 Red. masses --      1.0829                 1.1251                 1.0588
 Frc consts  --      1.5831                 1.6454                 1.5646
 IR Inten    --      6.7038                 4.2154                12.4388

                    133                    134                    135
                      A                      A                      A
 Frequencies --   1590.4983              1590.9231              1594.3195
 Red. masses --      1.0509                 1.0506                 1.0626
 Frc consts  --      1.5663                 1.5667                 1.5913
 IR Inten    --      5.0854                10.2868                 9.0665

                    136                    137                    138
                      A                      A                      A
 Frequencies --   1732.5994              1753.2773              3120.2738
 Red. masses --      6.1159                 5.8712                 1.0786
 Frc consts  --     10.8170                10.6336                 6.1872
 IR Inten    --     30.4163                33.2699                20.9983

                    139                    140                    141
                      A                      A                      A
 Frequencies --   3128.9064              3130.0374              3130.5686
 Red. masses --      1.0387                 1.0402                 1.0374
 Frc consts  --      5.9911                 6.0043                 5.9904
 IR Inten    --     95.3138                38.2213                45.5148

                    142                    143                    144
                      A                      A                      A
 Frequencies --   3132.9795              3150.5690              3151.0144
 Red. masses --      1.0359                 1.0836                 1.0763
 Frc consts  --      5.9910                 6.3373                 6.2965
 IR Inten    --     61.3120                17.5464                 7.2620

                    145                    146                    147
                      A                      A                      A
 Frequencies --   3162.1721              3173.8607              3190.3225
 Red. masses --      1.0717                 1.0852                 1.1068
 Frc consts  --      6.3141                 6.4406                 6.6374
 IR Inten    --     38.7270                68.4483                61.6256

                    148                    149                    150
                      A                      A                      A
 Frequencies --   3204.6300              3207.8006              3209.0648
 Red. masses --      1.0991                 1.1017                 1.0966
 Frc consts  --      6.6503                 6.6790                 6.6537
 IR Inten    --     48.0368                58.0006                46.1954

                    151                    152                    153
                      A                      A                      A
 Frequencies --   3228.3196              3242.0074              3245.6057
 Red. masses --      1.1015                 1.1052                 1.1052
 Frc consts  --      6.7640                 6.8444                 6.8593
 IR Inten    --     21.7569                48.6177                39.9893

                    154                    155                    156
                      A                      A                      A
 Frequencies --   3246.8616              3256.9132              3273.8983
 Red. masses --      1.1062                 1.1011                 1.0891
 Frc consts  --      6.8706                 6.8817                 6.8778
 IR Inten    --     38.2558                31.8135                 8.8313

                    157                    158                    159
                      A                      A                      A
 Frequencies --   3344.4830              3348.3100              3352.4722
 Red. masses --      1.0928                 1.0929                 1.0928
 Frc consts  --      7.2019                 7.2192                 7.2362
 IR Inten    --      1.7664                 8.2542                 6.1232

 - Thermochemistry -
 -------------------
 Temperature   298.150 Kelvin.  Pressure   1.00000 Atm.
 Atom     1 has atomic number  6 and mass  12.00000

 Molecular mass:   512.09396 amu.
 Principal axes and moments of inertia in atomic units:
                           1         2         3
     Eigenvalues --  ******************************
           X            0.99994  -0.00130   0.01078
           Y            0.00040   0.99655   0.08300
           Z           -0.01085  -0.08299   0.99649
 This molecule is an asymmetric top.
 Rotational symmetry number  1.
 Warning -- assumption of classical behavior for rotation
           may cause significant error
 Rotational temperatures (Kelvin)      0.00731     0.00393     0.00363
 Rotational constants (GHZ):           0.15241     0.08193     0.07568
 Zero-point vibrational energy    1125427.9 (Joules/Mol)
                                  268.98373 (Kcal/Mol)
 Warning -- explicit consideration of  54 degrees of freedom as
           vibrations may cause significant error
 Vibrational temperatures:     21.53    27.32    33.57    39.78    46.97
          (Kelvin)             57.15    69.44    76.91    81.34    91.38
                              104.70   115.71   121.06   148.86   152.52
                              158.60   175.97   225.85   227.94   236.50
                              248.05   259.89   273.89   281.07   288.95
                              335.22   354.43   365.61   375.55   387.22
                              423.73   428.59   435.79   442.14   472.14
                              481.88   515.48   529.73   533.79   554.56
                              619.83   629.81   659.27   677.55   697.62
                              705.19   743.34   750.94   783.10   797.94
                              809.08   846.69   854.29   879.47   913.08
                              922.41   949.48  1016.16  1020.34  1032.23
                             1064.22  1078.22  1101.58  1241.74  1268.37
                             1293.08  1297.05  1332.89  1398.81  1405.48
                             1443.86  1465.43  1467.58  1477.27  1514.86
                             1528.35  1550.44  1574.34  1635.17  1680.62
                             1684.77  1694.65  1696.92  1704.45  1714.83
                             1742.68  1747.68  1756.71  1771.52  1774.21
                             1778.02  1783.01  1792.40  1795.07  1803.54
                             1817.65  1817.80  1830.54  1842.49  1845.07
                             1858.99  1862.64  1864.82  1907.52  1940.80
                             1956.22  1965.57  1990.17  2012.61  2023.46
                             2031.56  2065.92  2070.59  2083.45  2098.98
                             2114.10  2133.50  2154.13  2159.28  2177.80
                             2230.53  2237.52  2238.34  2239.45  2243.18
                             2247.10  2253.54  2255.35  2256.08  2266.34
                             2266.74  2278.49  2288.37  2288.98  2293.87
                             2492.82  2522.57  4489.38  4501.80  4503.43
                             4504.19  4507.66  4532.97  4533.61  4549.66
                             4566.48  4590.16  4610.75  4615.31  4617.13
                             4644.83  4664.53  4669.70  4671.51  4685.97
                             4710.41  4811.97  4817.47  4823.46

 Zero-point correction=                           0.428653 (Hartree/Particle)
 Thermal correction to Energy=                    0.461438
 Thermal correction to Enthalpy=                  0.462382
 Thermal correction to Gibbs Free Energy=         0.359494
 Sum of electronic and zero-point Energies=          -2296.721170
 Sum of electronic and thermal Energies=             -2296.688385
 Sum of electronic and thermal Enthalpies=           -2296.687441
 Sum of electronic and thermal Free Energies=        -2296.790329

                     E (Thermal)             CV                S
                      KCal/Mol        Cal/Mol-Kelvin    Cal/Mol-Kelvin
 Total                  289.557            116.869            216.547
 Electronic               0.000              0.000              0.000
 Translational            0.889              2.981             44.587
 Rotational               0.889              2.981             37.073
 Vibrational            287.779            110.907            134.887
 Vibration     1          0.593              1.986              7.210
 Vibration     2          0.593              1.986              6.737
 Vibration     3          0.593              1.985              6.328
 Vibration     4          0.593              1.984              5.991
 Vibration     5          0.594              1.983              5.662
 Vibration     6          0.594              1.981              5.273
 Vibration     7          0.595              1.978              4.887
 Vibration     8          0.596              1.976              4.685
 Vibration     9          0.596              1.975              4.575
 Vibration    10          0.597              1.972              4.345
 Vibration    11          0.599              1.967              4.077
 Vibration    12          0.600              1.962              3.881
 Vibration    13          0.601              1.960              3.792
 Vibration    14          0.605              1.946              3.388
 Vibration    15          0.605              1.944              3.341
 Vibration    16          0.606              1.941              3.265
 Vibration    17          0.610              1.931              3.064
 Vibration    18          0.621              1.895              2.586
 Vibration    19          0.621              1.893              2.568
 Vibration    20          0.623              1.886              2.499
 Vibration    21          0.626              1.876              2.409
 Vibration    22          0.630              1.866              2.322
 Vibration    23          0.634              1.853              2.224
 Vibration    24          0.636              1.846              2.176
 Vibration    25          0.638              1.839              2.126
 Vibration    26          0.654              1.790              1.856
 Vibration    27          0.661              1.769              1.757
 Vibration    28          0.665              1.756              1.702
 Vibration    29          0.669              1.744              1.655
 Vibration    30          0.674              1.730              1.602
 Vibration    31          0.689              1.684              1.448
 Vibration    32          0.691              1.678              1.429
 Vibration    33          0.694              1.668              1.401
 Vibration    34          0.697              1.660              1.377
 Vibration    35          0.711              1.619              1.269
 Vibration    36          0.716              1.606              1.236
 Vibration    37          0.733              1.558              1.130
 Vibration    38          0.741              1.538              1.087
 Vibration    39          0.743              1.532              1.076
 Vibration    40          0.754              1.501              1.018
 Vibration    41          0.792              1.403              0.856
 Vibration    42          0.798              1.388              0.834
 Vibration    43          0.816              1.343              0.771
 Vibration    44          0.828              1.315              0.735
 Vibration    45          0.841              1.284              0.697
 Vibration    46          0.846              1.272              0.683
 Vibration    47          0.872              1.213              0.618
 Vibration    48          0.877              1.201              0.606
 Vibration    49          0.899              1.152              0.556
 Vibration    50          0.910              1.130              0.535
 Vibration    51          0.918              1.113              0.519
 Vibration    52          0.946              1.056              0.470
 Vibration    53          0.951              1.045              0.461
 Vibration    54          0.970              1.008              0.431

                           ! Non-Optimized Parameters !
 Normal termination of Gaussian 16 at Sat Jun 15 08:49:48 2019.
