 Gaussian 16, Revision A.03,
 Gaussian 16:  AS64L-G16RevA.03 25-Dec-2016

 ----------------------------------------------------------------------
 #p opt freq=noraman pop=none 6-31g* scrf=(pcm,solvent=tetrahydrofuran)
  m11 extrabasis
 ----------------------------------------------------------------------

 -----
 title
 -----
 Symbolic Z-matrix:
 Charge =  0 Multiplicity = 1

 SCF Done:  E(RM11) =  -2297.32019248     A.U. after   14 cycles
 Optimization completed.
    -- Stationary point found.
 Normal termination of Gaussian 16 at Sat Jun 15 08:53:02 2019.

 ----------------------------------------------------------------
 #P Geom=AllCheck Guess=TCheck SCRF=Check GenChk RM11/ChkBas Freq
 ----------------------------------------------------------------

 Structure from the checkpoint file:  "/scratch/users/ekwan/clay_new-glu_gluC6-bisCF3-sm-m11-custom-pcm_thf/Gau-23804.chk"
 -----
 title
 -----
 Charge =  0 Multiplicity = 1

                         Standard orientation:
 ---------------------------------------------------------------------
 Center     Atomic      Atomic             Coordinates (Angstroms)
 Number     Number       Type             X           Y           Z
 ---------------------------------------------------------------------
      1          6           0        3.358967    0.325646    0.646430
      2          6           0        3.319208   -0.462657   -0.662430
      3          6           0        1.870165   -0.765967   -1.076901
      4          6           0        1.013173    1.082227    0.153249
      5          6           0        2.419635    1.522745    0.554990
      6          1           0        1.807282   -1.217878   -2.073792
      7          1           0        3.742890    0.171449   -1.466312
      8          1           0        3.026550   -0.327399    1.474613
      9          1           0        0.601871    0.424173    0.939507
     10          1           0        2.802976    2.219921   -0.210354
     11          8           0        1.056685    0.352815   -1.089128
     12          8           0        1.386276   -1.747551   -0.107023
     13          8           0        4.082296   -1.628832   -0.500641
     14          8           0        4.659532    0.814519    0.894521
     15          8           0        2.320126    2.166536    1.806604
     16          6           0        0.083009    2.279837   -0.009608
     17          1           0       -0.167853    2.646103    0.993780
     18          1           0       -0.842112    1.953596   -0.516814
     19          8           0        0.665330    3.365737   -0.696924
     20         16           0        0.091817   -2.626009   -0.502270
     21          8           0        0.049919   -3.696654    0.480007
     22          8           0        0.152469   -2.907808   -1.932872
     23          6           0       -1.272802   -1.521130   -0.201197
     24          6           0       -1.748772   -1.393305    1.097518
     25          6           0       -1.799959   -0.803045   -1.265689
     26          6           0       -2.792729   -0.504033    1.325025
     27          1           0       -1.315724   -1.976899    1.911450
     28          6           0       -2.843595    0.076670   -1.004592
     29          1           0       -1.403930   -0.930166   -2.274124
     30          6           0       -3.343294    0.235291    0.283457
     31          1           0       -4.159353    0.932766    0.475250
     32          6           0        4.217355   -2.406221   -1.681482
     33          1           0        3.281538   -2.937545   -1.923191
     34          1           0        4.509995   -1.773863   -2.536528
     35          1           0        5.002811   -3.145569   -1.491980
     36          6           0        5.435600   -0.001188    1.761194
     37          1           0        6.403241    0.498686    1.887742
     38          1           0        4.947873   -0.095236    2.745969
     39          1           0        5.589060   -1.002094    1.334483
     40          6           0        2.998310    3.414883    1.855333
     41          1           0        2.854270    3.820484    2.863808
     42          1           0        4.073204    3.280171    1.662037
     43          1           0        2.571450    4.110868    1.114682
     44          6           0        0.807196    3.154739   -2.093544
     45          1           0        0.984168    4.134459   -2.553356
     46          1           0       -0.111613    2.712300   -2.514258
     47          1           0        1.652953    2.487064   -2.322383
     48          6           0       -3.372236   -0.375938    2.710909
     49          9           0       -2.454136   -0.662646    3.652691
     50          9           0       -4.409432   -1.217755    2.889588
     51          9           0       -3.827403    0.872046    2.933751
     52          6           0       -3.383941    0.925379   -2.125614
     53          9           0       -2.667987    2.066416   -2.260294
     54          9           0       -4.661062    1.282605   -1.903579
     55          9           0       -3.323690    0.279007   -3.303551
 ---------------------------------------------------------------------

 SCF Done:  E(RM11) =  -2297.32019248     A.U. after    1 cycles

 Isotropic polarizability for W=    0.000000      274.86 Bohr**3.
 End of Minotr F.D. properties file   721 does not exist.

                      1                      2                      3
                      A                      A                      A
 Frequencies --     16.4887                19.4732                22.4154
 Red. masses --      9.2071                 7.9537                15.1458
 Frc consts  --      0.0015                 0.0018                 0.0045
 IR Inten    --      0.1789                 0.1709                 0.0467

                      4                      5                      6
                      A                      A                      A
 Frequencies --     28.6023                39.9536                48.7742
 Red. masses --     10.5938                 5.6368                 5.3132
 Frc consts  --      0.0051                 0.0053                 0.0074
 IR Inten    --      0.1298                 0.4880                 0.1523

                      7                      8                      9
                      A                      A                      A
 Frequencies --     54.0082                63.1469                69.8171
 Red. masses --      5.1540                 3.9763                 3.5894
 Frc consts  --      0.0089                 0.0093                 0.0103
 IR Inten    --      1.1414                 1.2323                 0.3009

                     10                     11                     12
                      A                      A                      A
 Frequencies --     74.8346                79.3192                87.2714
 Red. masses --      2.9537                 2.6183                 3.3529
 Frc consts  --      0.0097                 0.0097                 0.0150
 IR Inten    --      4.0981                10.6848                 2.1118

                     13                     14                     15
                      A                      A                      A
 Frequencies --    100.4310               101.9312               109.9334
 Red. masses --     13.2497                 8.8542                 6.3940
 Frc consts  --      0.0787                 0.0542                 0.0455
 IR Inten    --      4.4730                 3.6531                 0.9716

                     16                     17                     18
                      A                      A                      A
 Frequencies --    118.9996               143.9223               155.3325
 Red. masses --      4.4502                 2.5646                 6.8545
 Frc consts  --      0.0371                 0.0313                 0.0974
 IR Inten    --      1.2464                 4.3510                 1.0500

                     19                     20                     21
                      A                      A                      A
 Frequencies --    160.5675               175.8866               181.0290
 Red. masses --      1.4326                 4.5908                 3.4702
 Frc consts  --      0.0218                 0.0837                 0.0670
 IR Inten    --      1.2464                 0.8887                 1.9197

                     22                     23                     24
                      A                      A                      A
 Frequencies --    188.7153               199.4367               209.0467
 Red. masses --      2.5820                 1.4589                 4.3191
 Frc consts  --      0.0542                 0.0342                 0.1112
 IR Inten    --      0.4897                 1.6827                17.3823

                     25                     26                     27
                      A                      A                      A
 Frequencies --    228.9765               236.2559               245.3794
 Red. masses --      1.6553                 6.5778                 1.7260
 Frc consts  --      0.0511                 0.2163                 0.0612
 IR Inten    --      0.7061                 0.5502                 4.1048

                     28                     29                     30
                      A                      A                      A
 Frequencies --    249.2969               258.1418               273.0258
 Red. masses --      2.5586                 6.3027                 3.2099
 Frc consts  --      0.0937                 0.2475                 0.1410
 IR Inten    --      1.6118                 4.9484                11.1085

                     31                     32                     33
                      A                      A                      A
 Frequencies --    283.3994               291.7631               294.2157
 Red. masses --     10.9363                 5.7741                 6.5676
 Frc consts  --      0.5175                 0.2896                 0.3350
 IR Inten    --      2.9264                12.8641                 4.7244

                     34                     35                     36
                      A                      A                      A
 Frequencies --    300.0698               313.8635               331.1378
 Red. masses --      6.3249                 5.2967                 3.9168
 Frc consts  --      0.3355                 0.3074                 0.2530
 IR Inten    --     16.4761                 0.3578                 2.3413

                     37                     38                     39
                      A                      A                      A
 Frequencies --    347.4395               355.5411               364.5957
 Red. masses --      7.4389                 5.4846                 5.4231
 Frc consts  --      0.5291                 0.4085                 0.4247
 IR Inten    --      2.2609                 3.5908                 8.9064

                     40                     41                     42
                      A                      A                      A
 Frequencies --    374.7023               414.5611               424.9656
 Red. masses --      8.5098                10.2535                 9.3564
 Frc consts  --      0.7040                 1.0382                 0.9956
 IR Inten    --     21.8949                17.7627                10.1850

                     43                     44                     45
                      A                      A                      A
 Frequencies --    433.1988               458.2615               470.1311
 Red. masses --      2.1883                 5.8622                 8.5485
 Frc consts  --      0.2420                 0.7253                 1.1132
 IR Inten    --     11.7530                 8.5773                25.4919

                     46                     47                     48
                      A                      A                      A
 Frequencies --    479.5324               495.6452               499.9623
 Red. masses --      3.9272                 7.7246                11.6162
 Frc consts  --      0.5321                 1.1181                 1.7108
 IR Inten    --     10.3614                11.7209                 1.7039

                     49                     50                     51
                      A                      A                      A
 Frequencies --    526.1911               531.2092               546.9578
 Red. masses --      4.2352                 7.9280                 6.4943
 Frc consts  --      0.6909                 1.3181                 1.1447
 IR Inten    --     43.7945                40.7703                 7.2123

                     52                     53                     54
                      A                      A                      A
 Frequencies --    570.3445               572.7953               588.3798
 Red. masses --      5.8946                 6.3828                 9.4082
 Frc consts  --      1.1298                 1.2338                 1.9190
 IR Inten    --     44.8862                23.3996               244.7454

                     55                     56                     57
                      A                      A                      A
 Frequencies --    613.8302               616.9021               656.4290
 Red. masses --      7.3235                 6.8728                 5.6444
 Frc consts  --      1.6258                 1.5411                 1.4330
 IR Inten    --     19.2651                28.0359                13.7629

                     58                     59                     60
                      A                      A                      A
 Frequencies --    679.9187               683.1886               692.4290
 Red. masses --     12.7896                 7.6213                 5.7155
 Frc consts  --      3.4835                 2.0959                 1.6146
 IR Inten    --     57.0528                 3.6854                24.7096

                     61                     62                     63
                      A                      A                      A
 Frequencies --    715.6901               721.9641               748.6855
 Red. masses --      2.3400                10.4420                 4.9892
 Frc consts  --      0.7062                 3.2067                 1.6477
 IR Inten    --     37.5561                 0.2056                35.1730

                     64                     65                     66
                      A                      A                      A
 Frequencies --    829.4895               849.2295               860.0729
 Red. masses --      6.1437                 4.0954                12.7947
 Frc consts  --      2.4906                 1.7402                 5.5764
 IR Inten    --    157.0590                43.8560               534.6764

                     67                     68                     69
                      A                      A                      A
 Frequencies --    868.4437               890.1360               935.9063
 Red. masses --     11.8095                 3.9784                 1.6829
 Frc consts  --      5.2476                 1.8572                 0.8685
 IR Inten    --     21.9891                75.9733                68.2791

                     70                     71                     72
                      A                      A                      A
 Frequencies --    945.0148               959.4696               973.4290
 Red. masses --      2.7625                 1.4113                 1.3782
 Frc consts  --      1.4536                 0.7655                 0.7694
 IR Inten    --     28.9513                 4.1635                10.7791

                     73                     74                     75
                      A                      A                      A
 Frequencies --    986.6076               995.4113              1011.0985
 Red. masses --      4.7218                 3.8169                 6.3359
 Frc consts  --      2.7080                 2.2283                 3.8163
 IR Inten    --     44.6183                18.3455                 3.1452

                     76                     77                     78
                      A                      A                      A
 Frequencies --   1029.2590              1040.8772              1060.0731
 Red. masses --      3.7264                 3.5120                 3.6742
 Frc consts  --      2.3259                 2.2418                 2.4327
 IR Inten    --     34.8813                 8.8939               132.8754

                     79                     80                     81
                      A                      A                      A
 Frequencies --   1100.3773              1127.2195              1131.5905
 Red. masses --      2.7438                 3.0284                 2.8364
 Frc consts  --      1.9574                 2.2671                 2.1399
 IR Inten    --     13.6062                11.1966                47.1421

                     82                     83                     84
                      A                      A                      A
 Frequencies --   1133.5583              1136.4837              1142.2138
 Red. masses --      3.0414                 1.7832                 2.1142
 Frc consts  --      2.3026                 1.3570                 1.6251
 IR Inten    --    134.9150                36.2577                10.2995

                     85                     86                     87
                      A                      A                      A
 Frequencies --   1150.6841              1169.5345              1176.7333
 Red. masses --      2.4724                 5.3274                 2.6040
 Frc consts  --      1.9288                 4.2933                 2.1244
 IR Inten    --    235.2592               383.1246                37.9960

                     88                     89                     90
                      A                      A                      A
 Frequencies --   1179.7816              1182.7720              1185.4138
 Red. masses --      2.0809                 1.3453                 1.2829
 Frc consts  --      1.7065                 1.1088                 1.0621
 IR Inten    --    250.0016                 8.2428                 2.8628

                     91                     92                     93
                      A                      A                      A
 Frequencies --   1186.2898              1190.9418              1192.9483
 Red. masses --      1.4241                 1.3887                 6.6033
 Frc consts  --      1.1808                 1.1605                 5.5367
 IR Inten    --     38.5147                36.7741               364.9009

                     94                     95                     96
                      A                      A                      A
 Frequencies --   1196.3298              1206.4787              1209.2875
 Red. masses --      1.7814                 2.5364                12.3730
 Frc consts  --      1.5022                 2.1752                10.6607
 IR Inten    --    164.2766                54.2514               354.3663

                     97                     98                     99
                      A                      A                      A
 Frequencies --   1220.8888              1224.8791              1227.9619
 Red. masses --      2.5908                 3.2289                 7.5100
 Frc consts  --      2.2753                 2.8542                 6.6720
 IR Inten    --    200.7586               155.0517               142.1939

                    100                    101                    102
                      A                      A                      A
 Frequencies --   1229.1769              1236.3217              1242.1595
 Red. masses --      1.7689                 7.3449                 1.9955
 Frc consts  --      1.5747                 6.6146                 1.8141
 IR Inten    --     55.9312               334.6180                33.0980

                    103                    104                    105
                      A                      A                      A
 Frequencies --   1247.5863              1270.0478              1287.3840
 Red. masses --      2.5243                 1.8885                 1.5218
 Frc consts  --      2.3149                 1.7948                 1.4860
 IR Inten    --     70.6503                15.7560                33.0586

                    106                    107                    108
                      A                      A                      A
 Frequencies --   1300.1092              1304.4747              1333.0209
 Red. masses --      1.4913                 3.5178                 1.2162
 Frc consts  --      1.4852                 3.5269                 1.2733
 IR Inten    --     10.9904               779.5783                15.6249

                    109                    110                    111
                      A                      A                      A
 Frequencies --   1345.3577              1347.2308              1364.2990
 Red. masses --     10.2539                 1.4981                 3.7401
 Frc consts  --     10.9350                 1.6021                 4.1016
 IR Inten    --    340.0180                 6.8227                19.3657

                    112                    113                    114
                      A                      A                      A
 Frequencies --   1367.2337              1371.0992              1386.9956
 Red. masses --      1.3107                 1.2995                 1.2995
 Frc consts  --      1.4435                 1.4393                 1.4730
 IR Inten    --     29.8407                 6.0842                 4.7489

                    115                    116                    117
                      A                      A                      A
 Frequencies --   1397.0076              1404.5424              1409.6072
 Red. masses --      6.3382                 1.4995                 1.3424
 Frc consts  --      7.2881                 1.7429                 1.5716
 IR Inten    --    188.1087                13.6803                 2.8794

                    118                    119                    120
                      A                      A                      A
 Frequencies --   1428.7622              1429.5541              1442.6919
 Red. masses --      1.6095                 1.3787                 1.4876
 Frc consts  --      1.9358                 1.6601                 1.8243
 IR Inten    --     21.6847                19.6062                 8.7886

                    121                    122                    123
                      A                      A                      A
 Frequencies --   1474.5266              1483.9270              1486.4441
 Red. masses --      1.0841                 1.2003                 1.1820
 Frc consts  --      1.3888                 1.5573                 1.5387
 IR Inten    --      2.3569                 2.7943                 2.3474

                    124                    125                    126
                      A                      A                      A
 Frequencies --   1490.0497              1496.6911              1499.2422
 Red. masses --      1.1429                 1.0873                 1.0484
 Frc consts  --      1.4950                 1.4350                 1.3884
 IR Inten    --      6.6990                15.8464                 3.0829

                    127                    128                    129
                      A                      A                      A
 Frequencies --   1500.6936              1506.2801              1506.8149
 Red. masses --      1.0514                 4.1983                 1.0899
 Frc consts  --      1.3950                 5.6122                 1.4579
 IR Inten    --      1.4989                 1.7183                 6.7584

                    130                    131                    132
                      A                      A                      A
 Frequencies --   1508.4477              1519.5310              1519.9507
 Red. masses --      1.1084                 1.9886                 1.5081
 Frc consts  --      1.4860                 2.7054                 2.0528
 IR Inten    --      3.2587                 4.2021                 8.3153

                    133                    134                    135
                      A                      A                      A
 Frequencies --   1522.2031              1522.7158              1523.2724
 Red. masses --      1.0520                 1.0488                 1.0483
 Frc consts  --      1.4362                 1.4328                 1.4331
 IR Inten    --      7.7180                11.2949                 9.3938

                    136                    137                    138
                      A                      A                      A
 Frequencies --   1690.7975              1710.5226              2999.6491
 Red. masses --      7.1355                 6.8813                 1.0832
 Frc consts  --     12.0187                11.8626                 5.7425
 IR Inten    --     20.8207                27.5886                30.0837

                    139                    140                    141
                      A                      A                      A
 Frequencies --   3013.5961              3022.3848              3023.1942
 Red. masses --      1.0355                 1.0332                 1.0414
 Frc consts  --      5.5407                 5.5610                 5.6077
 IR Inten    --     52.9718                49.7588                45.5018

                    142                    143                    144
                      A                      A                      A
 Frequencies --   3026.5166              3028.4153              3040.2139
 Red. masses --      1.0360                 1.0788                 1.0806
 Frc consts  --      5.5909                 5.8294                 5.8848
 IR Inten    --     61.1939                22.1291                 3.7865

                    145                    146                    147
                      A                      A                      A
 Frequencies --   3049.0809              3054.5850              3081.1622
 Red. masses --      1.0690                 1.0841                 1.1072
 Frc consts  --      5.8555                 5.9597                 6.1929
 IR Inten    --     30.4790                65.6627                53.2497

                    148                    149                    150
                      A                      A                      A
 Frequencies --   3092.1241              3105.3895              3110.1989
 Red. masses --      1.1053                 1.1058                 1.0975
 Frc consts  --      6.2267                 6.2831                 6.2551
 IR Inten    --     45.6644                37.7798                40.7884

                    151                    152                    153
                      A                      A                      A
 Frequencies --   3134.7187              3143.7610              3147.0854
 Red. masses --      1.1009                 1.1041                 1.0891
 Frc consts  --      6.3740                 6.4291                 6.3554
 IR Inten    --     13.4879                41.3293                 9.2997

                    154                    155                    156
                      A                      A                      A
 Frequencies --   3149.0007              3152.2434              3158.9475
 Red. masses --      1.1049                 1.1067                 1.1012
 Frc consts  --      6.4554                 6.4791                 6.4746
 IR Inten    --     31.9714                27.7531                23.6750

                    157                    158                    159
                      A                      A                      A
 Frequencies --   3215.5631              3220.3333              3221.3274
 Red. masses --      1.0938                 1.0937                 1.0935
 Frc consts  --      6.6635                 6.6827                 6.6853
 IR Inten    --     11.6002                12.2138                 4.9773

 - Thermochemistry -
 -------------------
 Temperature   298.150 Kelvin.  Pressure   1.00000 Atm.
 Atom     1 has atomic number  6 and mass  12.00000

 Molecular mass:   512.09396 amu.
 Principal axes and moments of inertia in atomic units:
                           1         2         3
     Eigenvalues --  ******************************
           X            0.99995   0.00588   0.00859
           Y           -0.00728   0.98496   0.17265
           Z           -0.00745  -0.17270   0.98495
 This molecule is an asymmetric top.
 Rotational symmetry number  1.
 Warning -- assumption of classical behavior for rotation
           may cause significant error
 Rotational temperatures (Kelvin)      0.00728     0.00413     0.00403
 Rotational constants (GHZ):           0.15161     0.08602     0.08388
 Zero-point vibrational energy    1085859.1 (Joules/Mol)
                                  259.52655 (Kcal/Mol)
 Warning -- explicit consideration of  56 degrees of freedom as
           vibrations may cause significant error
 Vibrational temperatures:     23.72    28.02    32.25    41.15    57.48
          (Kelvin)             70.18    77.71    90.85   100.45   107.67
                              114.12   125.56   144.50   146.66   158.17
                              171.21   207.07   223.49   231.02   253.06
                              260.46   271.52   286.94   300.77   329.45
                              339.92   353.05   358.68   371.41   392.82
                              407.75   419.78   423.31   431.73   451.58
                              476.43   499.89   511.54   524.57   539.11
                              596.46   611.43   623.28   659.34   676.41
                              689.94   713.12   719.33   757.07   764.29
                              786.95   820.60   824.12   846.55   883.16
                              887.58   944.45   978.25   982.96   996.25
                             1029.72  1038.75  1077.19  1193.45  1221.85
                             1237.45  1249.50  1280.71  1346.56  1359.67
                             1380.46  1400.55  1419.51  1432.17  1454.75
                             1480.87  1497.59  1525.21  1583.20  1621.82
                             1628.11  1630.94  1635.15  1643.39  1655.58
                             1682.70  1693.06  1697.44  1701.75  1705.55
                             1706.81  1713.50  1716.39  1721.25  1735.85
                             1739.89  1756.59  1762.33  1766.76  1768.51
                             1778.79  1787.19  1795.00  1827.32  1852.26
                             1870.57  1876.85  1917.92  1935.67  1938.36
                             1962.92  1967.14  1972.71  1995.58  2009.98
                             2020.82  2028.11  2055.67  2056.81  2075.71
                             2121.51  2135.04  2138.66  2143.85  2153.40
                             2157.08  2159.16  2167.20  2167.97  2170.32
                             2186.27  2186.87  2190.11  2190.85  2191.65
                             2432.68  2461.06  4315.83  4335.89  4348.54
                             4349.70  4354.48  4357.21  4374.19  4386.95
                             4394.87  4433.11  4448.88  4467.96  4474.88
                             4510.16  4523.17  4527.95  4530.71  4535.38
                             4545.02  4626.48  4633.34  4634.77

 Zero-point correction=                           0.413582 (Hartree/Particle)
 Thermal correction to Energy=                    0.446588
 Thermal correction to Enthalpy=                  0.447532
 Thermal correction to Gibbs Free Energy=         0.345847
 Sum of electronic and zero-point Energies=          -2296.906611
 Sum of electronic and thermal Energies=             -2296.873605
 Sum of electronic and thermal Enthalpies=           -2296.872661
 Sum of electronic and thermal Free Energies=        -2296.974345

                     E (Thermal)             CV                S
                      KCal/Mol        Cal/Mol-Kelvin    Cal/Mol-Kelvin
 Total                  280.238            119.805            214.013
 Electronic               0.000              0.000              0.000
 Translational            0.889              2.981             44.587
 Rotational               0.889              2.981             36.928
 Vibrational            278.461            113.843            132.498
 Vibration     1          0.593              1.986              7.018
 Vibration     2          0.593              1.986              6.687
 Vibration     3          0.593              1.985              6.408
 Vibration     4          0.593              1.984              5.924
 Vibration     5          0.594              1.981              5.261
 Vibration     6          0.595              1.978              4.866
 Vibration     7          0.596              1.976              4.665
 Vibration     8          0.597              1.972              4.356
 Vibration     9          0.598              1.969              4.159
 Vibration    10          0.599              1.966              4.022
 Vibration    11          0.600              1.963              3.908
 Vibration    12          0.601              1.958              3.720
 Vibration    13          0.604              1.949              3.446
 Vibration    14          0.604              1.948              3.417
 Vibration    15          0.606              1.941              3.270
 Vibration    16          0.609              1.933              3.117
 Vibration    17          0.616              1.909              2.751
 Vibration    18          0.620              1.897              2.606
 Vibration    19          0.622              1.891              2.543
 Vibration    20          0.628              1.872              2.372
 Vibration    21          0.630              1.866              2.318
 Vibration    22          0.633              1.855              2.240
 Vibration    23          0.638              1.841              2.138
 Vibration    24          0.642              1.827              2.052
 Vibration    25          0.652              1.797              1.887
 Vibration    26          0.655              1.785              1.831
 Vibration    27          0.660              1.770              1.764
 Vibration    28          0.662              1.764              1.736
 Vibration    29          0.667              1.749              1.674
 Vibration    30          0.676              1.723              1.577
 Vibration    31          0.682              1.704              1.513
 Vibration    32          0.687              1.689              1.464
 Vibration    33          0.689              1.685              1.450
 Vibration    34          0.693              1.674              1.417
 Vibration    35          0.702              1.647              1.342
 Vibration    36          0.714              1.613              1.255
 Vibration    37          0.725              1.580              1.178
 Vibration    38          0.731              1.564              1.142
 Vibration    39          0.738              1.545              1.102
 Vibration    40          0.746              1.524              1.060
 Vibration    41          0.778              1.439              0.911
 Vibration    42          0.787              1.416              0.875
 Vibration    43          0.794              1.398              0.848
 Vibration    44          0.816              1.343              0.771
 Vibration    45          0.827              1.316              0.737
 Vibration    46          0.836              1.295              0.711
 Vibration    47          0.851              1.260              0.669
 Vibration    48          0.855              1.250              0.658
 Vibration    49          0.881              1.192              0.596
 Vibration    50          0.886              1.181              0.585
 Vibration    51          0.902              1.146              0.551
 Vibration    52          0.926              1.095              0.504
 Vibration    53          0.929              1.090              0.499
 Vibration    54          0.946              1.057              0.470
 Vibration    55          0.973              1.003              0.426
 Vibration    56          0.977              0.996              0.421

 Optimization completed.
    -- Stationary point found.
 Normal termination of Gaussian 16 at Sat Jun 15 10:15:47 2019.
