 Gaussian 16, Revision A.03,
 Gaussian 16:  AS64L-G16RevA.03 25-Dec-2016

 ----------------------------------------------------------------------
 #p opt freq=noraman pop=none 6-31g* scrf=(pcm,solvent=tetrahydrofuran)
  b3lyp extrabasis
 ----------------------------------------------------------------------

 -----
 title
 -----
 Symbolic Z-matrix:
 Charge =  0 Multiplicity = 1

 SCF Done:  E(RB3LYP) =  -2298.08906913     A.U. after   13 cycles
 Optimization completed.
    -- Stationary point found.
 Normal termination of Gaussian 16 at Sat Jun 15 07:04:45 2019.

 ------------------------------------------------------------------
 #P Geom=AllCheck Guess=TCheck SCRF=Check GenChk RB3LYP/ChkBas Freq
 ------------------------------------------------------------------

 Structure from the checkpoint file:  "/scratch/users/ekwan/clay_new-glu_gluC6-bisCF3-sm-b3lyp-custom-pcm_thf/Gau-15711.chk"
 -----
 title
 -----
 Charge =  0 Multiplicity = 1

                         Standard orientation:
 ---------------------------------------------------------------------
 Center     Atomic      Atomic             Coordinates (Angstroms)
 Number     Number       Type             X           Y           Z
 ---------------------------------------------------------------------
      1          6           0        3.520591   -0.247282    0.746052
      2          6           0        3.366553   -0.506855   -0.758748
      3          6           0        1.895303   -0.376170   -1.202899
      4          6           0        1.373704    1.101631    0.622835
      5          6           0        2.824072    1.065593    1.127879
      6          1           0        1.792888   -0.420856   -2.286774
      7          1           0        3.910527    0.288791   -1.291880
      8          1           0        3.056712   -1.066870    1.311945
      9          1           0        0.793417    0.340415    1.161739
     10          1           0        3.371120    1.902638    0.676353
     11          8           0        1.312648    0.815661   -0.796988
     12          8           0        1.186760   -1.532273   -0.637714
     13          8           0        3.915859   -1.767216   -1.074838
     14          8           0        4.893111   -0.127394    1.091554
     15          8           0        2.775550    1.204346    2.541463
     16          6           0        0.695563    2.450364    0.861068
     17          1           0        0.600386    2.573014    1.943876
     18          1           0       -0.311973    2.432503    0.423932
     19          8           0        1.424523    3.572464    0.393776
     20         16           0       -0.123166   -2.138298   -1.404581
     21          8           0       -0.223175   -3.514651   -0.925884
     22          8           0       -0.012218   -1.844161   -2.836395
     23          6           0       -1.496622   -1.200802   -0.732246
     24          6           0       -2.167542   -1.695156    0.384523
     25          6           0       -1.856310    0.001279   -1.338616
     26          6           0       -3.232294   -0.956845    0.902900
     27          1           0       -1.869620   -2.634798    0.834631
     28          6           0       -2.915034    0.729253   -0.796274
     29          1           0       -1.327979    0.361180   -2.212968
     30          6           0       -3.605700    0.254785    0.320068
     31          1           0       -4.429911    0.825405    0.731862
     32          6           0        4.346087   -1.910841   -2.426209
     33          1           0        3.506327   -1.890357   -3.133096
     34          1           0        5.062917   -1.123613   -2.697481
     35          1           0        4.836400   -2.884129   -2.492908
     36          6           0        5.484367   -1.308630    1.624698
     37          1           0        6.518934   -1.053374    1.868869
     38          1           0        4.970686   -1.629678    2.542111
     39          1           0        5.471832   -2.129112    0.899722
     40          6           0        3.712826    2.133166    3.079165
     41          1           0        3.554738    2.142407    4.160870
     42          1           0        4.743065    1.829745    2.863330
     43          1           0        3.541052    3.143712    2.683325
     44          6           0        1.198810    3.911378   -0.970787
     45          1           0        1.652251    4.893845   -1.127818
     46          1           0        0.122770    3.974302   -1.188002
     47          1           0        1.653669    3.188367   -1.657332
     48          6           0       -4.019223   -1.502361    2.069461
     49          9           0       -3.252688   -2.272836    2.867889
     50          9           0       -5.052802   -2.265555    1.651112
     51          9           0       -4.536669   -0.511627    2.824919
     52          6           0       -3.265349    2.072532   -1.385394
     53          9           0       -2.527215    3.061182   -0.818449
     54          9           0       -4.559992    2.386161   -1.186655
     55          9           0       -3.025392    2.114320   -2.710557
 ---------------------------------------------------------------------

 SCF Done:  E(RB3LYP) =  -2298.08906913     A.U. after    1 cycles

 Isotropic polarizability for W=    0.000000      284.50 Bohr**3.
 End of Minotr F.D. properties file   721 does not exist.

                      1                      2                      3
                      A                      A                      A
 Frequencies --     12.3088                18.4993                22.6493
 Red. masses --      9.6293                 6.2918                16.6385
 Frc consts  --      0.0009                 0.0013                 0.0050
 IR Inten    --      0.1488                 0.4051                 0.0073

                      4                      5                      6
                      A                      A                      A
 Frequencies --     28.6363                38.7275                41.6904
 Red. masses --     11.3351                 4.9547                 6.4065
 Frc consts  --      0.0055                 0.0044                 0.0066
 IR Inten    --      0.0182                 0.3248                 0.2342

                      7                      8                      9
                      A                      A                      A
 Frequencies --     52.5776                54.2681                57.1224
 Red. masses --      5.0481                 3.7691                 3.5082
 Frc consts  --      0.0082                 0.0065                 0.0067
 IR Inten    --      2.0155                 0.2538                 2.7517

                     10                     11                     12
                      A                      A                      A
 Frequencies --     70.3103                74.1230                81.4622
 Red. masses --      3.4165                 3.4041                 3.2850
 Frc consts  --      0.0100                 0.0110                 0.0128
 IR Inten    --      4.2439                 2.7640                 1.9749

                     13                     14                     15
                      A                      A                      A
 Frequencies --     86.0595                99.7756               102.3174
 Red. masses --      2.5508                11.8421                 7.1463
 Frc consts  --      0.0111                 0.0695                 0.0441
 IR Inten    --      5.9049                 3.0961                 4.8520

                     16                     17                     18
                      A                      A                      A
 Frequencies --    110.8647               117.6476               149.2678
 Red. masses --      2.7353                 5.9351                 7.2360
 Frc consts  --      0.0198                 0.0484                 0.0950
 IR Inten    --      2.7290                 2.3901                 0.2164

                     19                     20                     21
                      A                      A                      A
 Frequencies --    154.3328               160.0772               166.8617
 Red. masses --      1.3199                 2.0322                 2.3178
 Frc consts  --      0.0185                 0.0307                 0.0380
 IR Inten    --      0.3414                 0.4267                 0.9729

                     22                     23                     24
                      A                      A                      A
 Frequencies --    173.4814               183.7478               188.1222
 Red. masses --      1.9447                 2.8973                 2.0409
 Frc consts  --      0.0345                 0.0576                 0.0426
 IR Inten    --      3.2364                 5.7109                 1.0838

                     25                     26                     27
                      A                      A                      A
 Frequencies --    196.1070               224.3723               236.0117
 Red. masses --      1.7364                 3.1515                12.2525
 Frc consts  --      0.0393                 0.0935                 0.4021
 IR Inten    --      0.4559                11.5624                 0.2654

                     28                     29                     30
                      A                      A                      A
 Frequencies --    243.7268               251.7445               257.2536
 Red. masses --      4.3942                 3.7929                 5.2535
 Frc consts  --      0.1538                 0.1416                 0.2048
 IR Inten    --      5.5477                 9.2876                12.6262

                     31                     32                     33
                      A                      A                      A
 Frequencies --    279.7417               286.0876               289.3307
 Red. masses --     10.5982                 5.5000                 9.3221
 Frc consts  --      0.4886                 0.2652                 0.4598
 IR Inten    --      2.7397                12.8198                 2.8557

                     34                     35                     36
                      A                      A                      A
 Frequencies --    291.4616               311.6859               321.2570
 Red. masses --      7.9702                 5.5259                 4.2168
 Frc consts  --      0.3989                 0.3163                 0.2564
 IR Inten    --      7.9806                 0.3093                 5.5128

                     37                     38                     39
                      A                      A                      A
 Frequencies --    342.3647               350.3227               355.6619
 Red. masses --      7.2840                 7.5164                 4.2063
 Frc consts  --      0.5030                 0.5435                 0.3135
 IR Inten    --      0.6714                 8.6385                 4.4061

                     40                     41                     42
                      A                      A                      A
 Frequencies --    361.7293               409.8552               416.4518
 Red. masses --      9.8746                10.2247                 8.8428
 Frc consts  --      0.7613                 1.0120                 0.9036
 IR Inten    --     15.1831                16.2854                 7.6398

                     43                     44                     45
                      A                      A                      A
 Frequencies --    441.5116               448.4932               458.0802
 Red. masses --      2.6178                 3.6910                 8.6087
 Frc consts  --      0.3007                 0.4374                 1.0643
 IR Inten    --      8.2702                13.8410                18.4742

                     46                     47                     48
                      A                      A                      A
 Frequencies --    467.2201               488.7761               496.1766
 Red. masses --      4.3756                 7.9315                11.8982
 Frc consts  --      0.5628                 1.1164                 1.7259
 IR Inten    --     10.8151                21.4200                 0.7834

                     49                     50                     51
                      A                      A                      A
 Frequencies --    518.4260               522.9896               535.3519
 Red. masses --      4.9589                11.1803                 4.6288
 Frc consts  --      0.7852                 1.8017                 0.7816
 IR Inten    --     37.9462                26.3918                17.3409

                     52                     53                     54
                      A                      A                      A
 Frequencies --    563.3998               564.4479               573.1757
 Red. masses --     10.4238                 4.2227                11.4115
 Frc consts  --      1.9494                 0.7927                 2.2089
 IR Inten    --     61.6381                40.3179               234.0119

                     55                     56                     57
                      A                      A                      A
 Frequencies --    602.1485               609.7656               623.9052
 Red. masses --      6.5639                 7.8957                 5.7759
 Frc consts  --      1.4022                 1.7297                 1.3247
 IR Inten    --     39.7067                 4.4324                10.9590

                     58                     59                     60
                      A                      A                      A
 Frequencies --    671.7206               672.5402               676.7742
 Red. masses --      7.4046                 6.7448                12.7878
 Frc consts  --      1.9685                 1.7975                 3.4509
 IR Inten    --     10.8286                59.2300                54.6425

                     61                     62                     63
                      A                      A                      A
 Frequencies --    707.2311               711.4400               723.1642
 Red. masses --      2.5322                 8.8035                 5.7601
 Frc consts  --      0.7462                 2.6253                 1.7748
 IR Inten    --     25.2077                11.0164                94.5690

                     64                     65                     66
                      A                      A                      A
 Frequencies --    785.2639               822.9926               832.9877
 Red. masses --      9.9446                 4.7801                 6.8640
 Frc consts  --      3.6130                 1.9076                 2.8061
 IR Inten    --    601.5815                71.7741                46.9432

                     67                     68                     69
                      A                      A                      A
 Frequencies --    855.6653               865.8718               912.9199
 Red. masses --     11.9052                 4.2010                 1.6668
 Frc consts  --      5.1357                 1.8557                 0.8185
 IR Inten    --     29.2514                37.8328                73.0130

                     70                     71                     72
                      A                      A                      A
 Frequencies --    919.6839               943.2764               958.7212
 Red. masses --      2.7176                 1.4155                 4.6029
 Frc consts  --      1.3543                 0.7421                 2.4927
 IR Inten    --     15.0123                 7.5028                 7.6733

                     73                     74                     75
                      A                      A                      A
 Frequencies --    960.9283               970.8239               997.5923
 Red. masses --      1.3850                 4.3647                 4.2204
 Frc consts  --      0.7535                 2.4237                 2.4746
 IR Inten    --      7.1631                36.9224                53.6920

                     76                     77                     78
                      A                      A                      A
 Frequencies --   1013.6351              1015.5811              1036.1159
 Red. masses --      5.9733                 4.6638                 3.4616
 Frc consts  --      3.6160                 2.8341                 2.1895
 IR Inten    --      5.1731                13.5063               134.0050

                     79                     80                     81
                      A                      A                      A
 Frequencies --   1076.4762              1103.7116              1113.6235
 Red. masses --      3.2626                11.3918                 3.1187
 Frc consts  --      2.2275                 8.1762                 2.2788
 IR Inten    --     19.7340                63.3470               136.6255

                     82                     83                     84
                      A                      A                      A
 Frequencies --   1117.5016              1119.5171              1126.3032
 Red. masses --      4.6294                 2.9284                 3.9724
 Frc consts  --      3.4062                 2.1624                 2.9690
 IR Inten    --    184.6016                26.2524               286.7010

                     85                     86                     87
                      A                      A                      A
 Frequencies --   1134.2281              1141.2114              1142.4177
 Red. masses --      2.0859                 4.0346                 2.7218
 Frc consts  --      1.5810                 3.0959                 2.0930
 IR Inten    --     34.0476                36.6182               443.2450

                     88                     89                     90
                      A                      A                      A
 Frequencies --   1148.7996              1156.8206              1167.9958
 Red. masses --      3.8633                10.0308                 3.9983
 Frc consts  --      3.0040                 7.9089                 3.2137
 IR Inten    --    198.2589               401.6590                93.0138

                     91                     92                     93
                      A                      A                      A
 Frequencies --   1174.2065              1178.6958              1180.6647
 Red. masses --     12.4534                 2.5175                 2.5803
 Frc consts  --     10.1164                 2.0608                 2.1192
 IR Inten    --    331.2858               100.6627               114.8695

                     94                     95                     96
                      A                      A                      A
 Frequencies --   1184.6565              1185.8608              1188.8305
 Red. masses --      1.3637                 1.4555                 1.4243
 Frc consts  --      1.1276                 1.2060                 1.1860
 IR Inten    --     10.6297                12.4080                32.0919

                     97                     98                     99
                      A                      A                      A
 Frequencies --   1189.8806              1203.4345              1210.1846
 Red. masses --      1.3396                 7.2587                 5.9386
 Frc consts  --      1.1174                 6.1938                 5.1243
 IR Inten    --     28.9971               163.6543               274.7623

                    100                    101                    102
                      A                      A                      A
 Frequencies --   1215.9726              1222.5978              1229.6517
 Red. masses --      1.3786                 1.4716                 1.6468
 Frc consts  --      1.2010                 1.2960                 1.4670
 IR Inten    --     38.6384                26.2944                14.7114

                    103                    104                    105
                      A                      A                      A
 Frequencies --   1238.0226              1266.5040              1284.3235
 Red. masses --      1.6089                 1.6964                 3.4451
 Frc consts  --      1.4529                 1.6032                 3.3482
 IR Inten    --     22.3451                 6.5755               805.6185

                    106                    107                    108
                      A                      A                      A
 Frequencies --   1301.8486              1307.7413              1314.1188
 Red. masses --     10.1546                 1.4423                 1.5105
 Frc consts  --     10.1399                 1.4533                 1.5369
 IR Inten    --    242.2006                 3.6532                57.6191

                    109                    110                    111
                      A                      A                      A
 Frequencies --   1340.5281              1346.0988              1368.7785
 Red. masses --      1.3279                 1.2300                 3.9744
 Frc consts  --      1.4060                 1.3131                 4.3872
 IR Inten    --      3.5902                10.5934               200.7892

                    112                    113                    114
                      A                      A                      A
 Frequencies --   1370.8734              1373.8233              1376.9594
 Red. masses --      1.3745                 4.2557                 1.2104
 Frc consts  --      1.5220                 4.7324                 1.3521
 IR Inten    --     32.5122                 0.5006                 8.9589

                    115                    116                    117
                      A                      A                      A
 Frequencies --   1393.8297              1399.4997              1418.0722
 Red. masses --      1.2630                 1.3813                 1.3023
 Frc consts  --      1.4456                 1.5940                 1.5430
 IR Inten    --      2.3796                15.3439                 6.0193

                    118                    119                    120
                      A                      A                      A
 Frequencies --   1424.7546              1435.2471              1443.9067
 Red. masses --      1.3740                 1.2927                 1.3106
 Frc consts  --      1.6433                 1.5689                 1.6099
 IR Inten    --     31.9832                14.3328                13.4174

                    121                    122                    123
                      A                      A                      A
 Frequencies --   1487.4710              1491.1210              1494.8665
 Red. masses --      3.6331                 1.1028                 1.1570
 Frc consts  --      4.7361                 1.4447                 1.5233
 IR Inten    --      6.8578                 2.9890                 0.4617

                    124                    125                    126
                      A                      A                      A
 Frequencies --   1495.7719              1496.9231              1499.7252
 Red. masses --      4.0410                 1.1574                 1.1297
 Frc consts  --      5.3268                 1.5280                 1.4971
 IR Inten    --      1.3799                 1.8401                 3.8582

                    127                    128                    129
                      A                      A                      A
 Frequencies --   1508.0750              1509.5681              1509.7763
 Red. masses --      1.0522                 1.0569                 1.0564
 Frc consts  --      1.4099                 1.4190                 1.4188
 IR Inten    --      2.7664                10.8035                 1.5125

                    130                    131                    132
                      A                      A                      A
 Frequencies --   1515.5503              1518.1003              1527.9431
 Red. masses --      1.1268                 1.0773                 1.0538
 Frc consts  --      1.5249                 1.4628                 1.4495
 IR Inten    --      3.5877                 5.6261                12.4479

                    133                    134                    135
                      A                      A                      A
 Frequencies --   1535.9631              1536.7119              1538.5145
 Red. masses --      1.0513                 1.0502                 1.0579
 Frc consts  --      1.4613                 1.4612                 1.4754
 IR Inten    --      8.2216                 7.8859                 9.5726

                    136                    137                    138
                      A                      A                      A
 Frequencies --   1646.8295              1669.4556              3010.5535
 Red. masses --      6.1035                 5.8336                 1.0813
 Frc consts  --      9.7528                 9.5793                 5.7742
 IR Inten    --     15.4190                19.3733                23.5486

                    139                    140                    141
                      A                      A                      A
 Frequencies --   3023.3906              3024.1955              3024.4189
 Red. masses --      1.0384                 1.0380                 1.0380
 Frc consts  --      5.5925                 5.5934                 5.5942
 IR Inten    --    111.8265                49.2706                40.7389

                    142                    143                    144
                      A                      A                      A
 Frequencies --   3027.5386              3043.3180              3043.9802
 Red. masses --      1.0372                 1.0757                 1.0831
 Frc consts  --      5.6012                 5.8701                 5.9131
 IR Inten    --     69.7948                 7.0351                18.1634

                    145                    146                    147
                      A                      A                      A
 Frequencies --   3053.9351              3066.1939              3081.2648
 Red. masses --      1.0713                 1.0848                 1.1063
 Frc consts  --      5.8867                 6.0091                 6.1885
 IR Inten    --     44.0817                70.4460                63.9380

                    148                    149                    150
                      A                      A                      A
 Frequencies --   3093.4970              3099.6870              3101.1675
 Red. masses --      1.0986                 1.0996                 1.0946
 Frc consts  --      6.1944                 6.2246                 6.2022
 IR Inten    --     50.7923                57.8363                48.7306

                    151                    152                    153
                      A                      A                      A
 Frequencies --   3121.6168              3137.6424              3142.1198
 Red. masses --      1.1004                 1.1035                 1.1040
 Frc consts  --      6.3175                 6.4007                 6.4222
 IR Inten    --     21.6754                49.0221                39.5491

                    154                    155                    156
                      A                      A                      A
 Frequencies --   3143.1180              3153.9747              3158.4970
 Red. masses --      1.1049                 1.0991                 1.0889
 Frc consts  --      6.4314                 6.4416                 6.4000
 IR Inten    --     38.2598                32.3172                 9.3361

                    157                    158                    159
                      A                      A                      A
 Frequencies --   3245.0811              3248.0502              3252.2672
 Red. masses --      1.0918                 1.0919                 1.0918
 Frc consts  --      6.7738                 6.7868                 6.8041
 IR Inten    --      0.9123                 6.7800                 4.7619

 - Thermochemistry -
 -------------------
 Temperature   298.150 Kelvin.  Pressure   1.00000 Atm.
 Atom     1 has atomic number  6 and mass  12.00000

 Molecular mass:   512.09396 amu.
 Principal axes and moments of inertia in atomic units:
                           1         2         3
     Eigenvalues --  ******************************
           X            0.99994  -0.00125   0.01081
           Y            0.00044   0.99718   0.07506
           Z           -0.01088  -0.07506   0.99712
 This molecule is an asymmetric top.
 Rotational symmetry number  1.
 Warning -- assumption of classical behavior for rotation
           may cause significant error
 Rotational temperatures (Kelvin)      0.00719     0.00383     0.00352
 Rotational constants (GHZ):           0.14974     0.07987     0.07330
 Zero-point vibrational energy    1078044.4 (Joules/Mol)
                                  257.65878 (Kcal/Mol)
 Warning -- explicit consideration of  56 degrees of freedom as
           vibrations may cause significant error
 Vibrational temperatures:     17.71    26.62    32.59    41.20    55.72
          (Kelvin)             59.98    75.65    78.08    82.19   101.16
                              106.65   117.21   123.82   143.55   147.21
                              159.51   169.27   214.76   222.05   230.32
                              240.08   249.60   264.37   270.67   282.15
                              322.82   339.57   350.67   362.20   370.13
                              402.49   411.62   416.28   419.35   448.45
                              462.22   492.59   504.04   511.72   520.45
                              589.69   599.18   635.24   645.28   659.08
                              672.23   703.24   713.89   745.90   752.47
                              770.25   810.61   812.11   824.67   866.36
                              877.32   897.66   966.46   967.64   973.73
                             1017.55  1023.60  1040.47  1129.82  1184.10
                             1198.48  1231.11  1245.80  1313.49  1323.22
                             1357.16  1379.39  1382.56  1396.80  1435.31
                             1458.39  1461.19  1490.74  1548.81  1587.99
                             1602.26  1607.84  1610.74  1620.50  1631.90
                             1641.95  1643.68  1652.87  1664.41  1680.49
                             1689.42  1695.88  1698.71  1704.46  1706.19
                             1710.46  1711.97  1731.47  1741.19  1749.51
                             1759.05  1769.19  1781.24  1822.22  1847.86
                             1873.07  1881.55  1890.72  1928.72  1936.74
                             1969.37  1972.38  1976.63  1981.14  2005.41
                             2013.57  2040.29  2049.90  2065.00  2077.46
                             2140.14  2145.39  2150.78  2152.08  2153.74
                             2157.77  2169.78  2171.93  2172.23  2180.54
                             2184.21  2198.37  2209.91  2210.99  2213.58
                             2369.42  2401.97  4331.51  4349.98  4351.14
                             4351.46  4355.95  4378.66  4379.61  4393.93
                             4411.57  4433.25  4450.85  4459.76  4461.89
                             4491.31  4514.37  4520.81  4522.25  4537.87
                             4544.37  4668.95  4673.22  4679.29

 Zero-point correction=                           0.410605 (Hartree/Particle)
 Thermal correction to Energy=                    0.444415
 Thermal correction to Enthalpy=                  0.445359
 Thermal correction to Gibbs Free Energy=         0.340799
 Sum of electronic and zero-point Energies=          -2297.678464
 Sum of electronic and thermal Energies=             -2297.644654
 Sum of electronic and thermal Enthalpies=           -2297.643710
 Sum of electronic and thermal Free Energies=        -2297.748270

                     E (Thermal)             CV                S
                      KCal/Mol        Cal/Mol-Kelvin    Cal/Mol-Kelvin
 Total                  278.874            121.534            220.065
 Electronic               0.000              0.000              0.000
 Translational            0.889              2.981             44.587
 Rotational               0.889              2.981             37.148
 Vibrational            277.097            115.572            138.330
 Vibration     1          0.593              1.987              7.598
 Vibration     2          0.593              1.986              6.789
 Vibration     3          0.593              1.985              6.387
 Vibration     4          0.593              1.984              5.922
 Vibration     5          0.594              1.981              5.323
 Vibration     6          0.594              1.981              5.177
 Vibration     7          0.596              1.977              4.718
 Vibration     8          0.596              1.976              4.655
 Vibration     9          0.596              1.975              4.554
 Vibration    10          0.598              1.968              4.145
 Vibration    11          0.599              1.966              4.041
 Vibration    12          0.600              1.962              3.855
 Vibration    13          0.601              1.959              3.748
 Vibration    14          0.604              1.949              3.459
 Vibration    15          0.604              1.947              3.410
 Vibration    16          0.607              1.940              3.254
 Vibration    17          0.608              1.935              3.139
 Vibration    18          0.618              1.903              2.682
 Vibration    19          0.620              1.898              2.618
 Vibration    20          0.622              1.891              2.549
 Vibration    21          0.624              1.883              2.471
 Vibration    22          0.627              1.875              2.397
 Vibration    23          0.631              1.862              2.290
 Vibration    24          0.633              1.856              2.246
 Vibration    25          0.636              1.845              2.169
 Vibration    26          0.649              1.804              1.924
 Vibration    27          0.655              1.786              1.833
 Vibration    28          0.659              1.773              1.776
 Vibration    29          0.664              1.760              1.718
 Vibration    30          0.667              1.751              1.680
 Vibration    31          0.680              1.711              1.535
 Vibration    32          0.684              1.700              1.497
 Vibration    33          0.686              1.694              1.478
 Vibration    34          0.687              1.690              1.465
 Vibration    35          0.700              1.651              1.353
 Vibration    36          0.707              1.633              1.304
 Vibration    37          0.721              1.591              1.201
 Vibration    38          0.727              1.575              1.165
 Vibration    39          0.731              1.564              1.141
 Vibration    40          0.736              1.551              1.115
 Vibration    41          0.774              1.449              0.927
 Vibration    42          0.780              1.435              0.904
 Vibration    43          0.801              1.380              0.822
 Vibration    44          0.808              1.364              0.800
 Vibration    45          0.816              1.343              0.772
 Vibration    46          0.824              1.323              0.745
 Vibration    47          0.845              1.275              0.687
 Vibration    48          0.852              1.258              0.668
 Vibration    49          0.873              1.209              0.614
 Vibration    50          0.878              1.199              0.603
 Vibration    51          0.890              1.172              0.575
 Vibration    52          0.919              1.110              0.517
 Vibration    53          0.920              1.108              0.515
 Vibration    54          0.929              1.089              0.498
 Vibration    55          0.960              1.027              0.446
 Vibration    56          0.969              1.011              0.433

                           ! Non-Optimized Parameters !
 Normal termination of Gaussian 16 at Sat Jun 15 07:47:29 2019.
