 Gaussian 16, Revision A.03,
 Gaussian 16:  AS64L-G16RevA.03 25-Dec-2016

 ----------------------------------------------------------------------
 #p opt freq=noraman pop=none 6-31g* scrf=(pcm,solvent=tetrahydrofuran)
  b3p86 extrabasis
 ----------------------------------------------------------------------

 -----
 title
 -----
 Symbolic Z-matrix:
 Charge =  0 Multiplicity = 1

 SCF Done:  E(RB3P86) =  -2302.82832232     A.U. after   13 cycles
 Optimization completed.
    -- Stationary point found.
 Normal termination of Gaussian 16 at Sat Jun 15 07:04:41 2019.

 ------------------------------------------------------------------
 #P Geom=AllCheck Guess=TCheck SCRF=Check GenChk RB3P86/ChkBas Freq
 ------------------------------------------------------------------

 Structure from the checkpoint file:  "/scratch/users/ekwan/clay_new-glu_gluC6-bisCF3-sm-b3p86-custom-pcm_thf/Gau-56794.chk"
 -----
 title
 -----
 Charge =  0 Multiplicity = 1

                         Standard orientation:
 ---------------------------------------------------------------------
 Center     Atomic      Atomic             Coordinates (Angstroms)
 Number     Number       Type             X           Y           Z
 ---------------------------------------------------------------------
      1          6           0        3.482728   -0.226561    0.744799
      2          6           0        3.358197   -0.465586   -0.758258
      3          6           0        1.897052   -0.356474   -1.215543
      4          6           0        1.327094    1.081580    0.599525
      5          6           0        2.760536    1.061642    1.129554
      6          1           0        1.804149   -0.401554   -2.301480
      7          1           0        3.894790    0.348275   -1.272906
      8          1           0        3.020180   -1.062434    1.289433
      9          1           0        0.749013    0.301909    1.115588
     10          1           0        3.300903    1.914449    0.697401
     11          8           0        1.296736    0.822306   -0.815967
     12          8           0        1.210598   -1.513446   -0.658705
     13          8           0        3.931763   -1.704691   -1.079163
     14          8           0        4.837751   -0.090153    1.117522
     15          8           0        2.686382    1.180520    2.535170
     16          6           0        0.634013    2.411564    0.854158
     17          1           0        0.493327    2.496464    1.935327
     18          1           0       -0.355240    2.401140    0.374914
     19          8           0        1.368691    3.546747    0.458175
     20         16           0       -0.090465   -2.110450   -1.422483
     21          8           0       -0.185785   -3.485360   -0.959339
     22          8           0        0.014836   -1.796593   -2.843660
     23          6           0       -1.453484   -1.192104   -0.739408
     24          6           0       -2.099837   -1.690089    0.386168
     25          6           0       -1.839929   -0.003605   -1.348421
     26          6           0       -3.166764   -0.967711    0.912293
     27          1           0       -1.780807   -2.624179    0.834720
     28          6           0       -2.903507    0.705859   -0.799877
     29          1           0       -1.328647    0.355470   -2.233886
     30          6           0       -3.569005    0.229154    0.326439
     31          1           0       -4.400166    0.786487    0.743269
     32          6           0        4.328824   -1.833532   -2.433145
     33          1           0        3.470946   -1.853351   -3.117463
     34          1           0        5.002073   -1.016648   -2.726535
     35          1           0        4.860001   -2.783430   -2.513506
     36          6           0        5.429727   -1.272377    1.625376
     37          1           0        6.457187   -1.015677    1.894104
     38          1           0        4.904563   -1.623560    2.524674
     39          1           0        5.437136   -2.072919    0.878712
     40          6           0        3.588247    2.125202    3.083929
     41          1           0        3.426271    2.121613    4.164505
     42          1           0        4.627583    1.852834    2.870740
     43          1           0        3.389738    3.133211    2.695419
     44          6           0        1.230026    3.891493   -0.907764
     45          1           0        1.683959    4.877803   -1.031089
     46          1           0        0.169909    3.947870   -1.193151
     47          1           0        1.732339    3.176678   -1.568830
     48          6           0       -3.927554   -1.516209    2.088732
     49          9           0       -3.141222   -2.265110    2.877800
     50          9           0       -4.948890   -2.294557    1.688868
     51          9           0       -4.448158   -0.532397    2.839921
     52          6           0       -3.295849    2.028023   -1.398863
     53          9           0       -2.588820    3.038775   -0.849774
     54          9           0       -4.593038    2.300889   -1.195700
     55          9           0       -3.066834    2.060233   -2.720075
 ---------------------------------------------------------------------

 SCF Done:  E(RB3P86) =  -2302.82832232     A.U. after    1 cycles

 Isotropic polarizability for W=    0.000000      282.19 Bohr**3.
 End of Minotr F.D. properties file   721 does not exist.

                      1                      2                      3
                      A                      A                      A
 Frequencies --     13.3379                16.6059                20.8137
 Red. masses --      9.4670                 6.3805                15.8389
 Frc consts  --      0.0010                 0.0010                 0.0040
 IR Inten    --      0.0924                 0.2483                 0.0188

                      4                      5                      6
                      A                      A                      A
 Frequencies --     23.9096                29.6821                37.1140
 Red. masses --     11.2723                 3.3006                 7.1936
 Frc consts  --      0.0038                 0.0017                 0.0058
 IR Inten    --      0.0272                 2.0612                 0.1521

                      7                      8                      9
                      A                      A                      A
 Frequencies --     38.8259                51.0727                53.6307
 Red. masses --      4.3335                 3.7172                 4.4019
 Frc consts  --      0.0038                 0.0057                 0.0075
 IR Inten    --      1.9139                 0.6301                 2.4023

                     10                     11                     12
                      A                      A                      A
 Frequencies --     60.7609                70.8920                79.1455
 Red. masses --      3.1176                 4.0867                 3.3999
 Frc consts  --      0.0068                 0.0121                 0.0125
 IR Inten    --      6.8240                 0.3651                 0.8751

                     13                     14                     15
                      A                      A                      A
 Frequencies --     84.9355                98.9127               100.4094
 Red. masses --      2.5825                11.2171                 7.7574
 Frc consts  --      0.0110                 0.0647                 0.0461
 IR Inten    --      5.7509                 2.9377                 4.0550

                     16                     17                     18
                      A                      A                      A
 Frequencies --    108.7665               116.4420               150.0001
 Red. masses --      2.6813                 5.9215                 7.5497
 Frc consts  --      0.0187                 0.0473                 0.1001
 IR Inten    --      2.5343                 2.3065                 0.1813

                     19                     20                     21
                      A                      A                      A
 Frequencies --    154.6973               160.4743               167.5111
 Red. masses --      1.3927                 1.8921                 2.5522
 Frc consts  --      0.0196                 0.0287                 0.0422
 IR Inten    --      0.1798                 0.4311                 1.1542

                     22                     23                     24
                      A                      A                      A
 Frequencies --    175.1511               184.3498               189.3657
 Red. masses --      1.8388                 3.1900                 1.9817
 Frc consts  --      0.0332                 0.0639                 0.0419
 IR Inten    --      3.1965                 4.9651                 1.6810

                     25                     26                     27
                      A                      A                      A
 Frequencies --    196.1634               224.9941               234.3396
 Red. masses --      1.7751                 3.0099                12.0472
 Frc consts  --      0.0402                 0.0898                 0.3898
 IR Inten    --      0.5104                11.0418                 0.1042

                     28                     29                     30
                      A                      A                      A
 Frequencies --    243.8558               254.7116               258.2418
 Red. masses --      3.9201                 3.7312                 5.8642
 Frc consts  --      0.1373                 0.1426                 0.2304
 IR Inten    --      6.8376                10.0314                11.7975

                     31                     32                     33
                      A                      A                      A
 Frequencies --    281.0456               285.8578               290.4618
 Red. masses --     11.0469                 5.0356                 9.5800
 Frc consts  --      0.5141                 0.2424                 0.4762
 IR Inten    --      3.0315                10.0450                 4.7264

                     34                     35                     36
                      A                      A                      A
 Frequencies --    293.2264               312.4422               322.7620
 Red. masses --      8.0893                 5.4292                 4.1149
 Frc consts  --      0.4098                 0.3123                 0.2526
 IR Inten    --      9.0032                 0.2507                 5.1374

                     37                     38                     39
                      A                      A                      A
 Frequencies --    343.8478               351.8579               356.5027
 Red. masses --      7.2582                 6.4330                 4.7736
 Frc consts  --      0.5056                 0.4692                 0.3575
 IR Inten    --      0.6080                 3.9428                 6.1376

                     40                     41                     42
                      A                      A                      A
 Frequencies --    365.8207               411.5208               419.1572
 Red. masses --      9.5661                10.0875                 8.7956
 Frc consts  --      0.7543                 1.0065                 0.9105
 IR Inten    --     15.2712                15.7341                 6.8184

                     43                     44                     45
                      A                      A                      A
 Frequencies --    439.7866               451.4271               461.6410
 Red. masses --      2.1480                 5.1776                 8.7688
 Frc consts  --      0.2448                 0.6217                 1.1010
 IR Inten    --      6.2072                13.3724                18.9907

                     46                     47                     48
                      A                      A                      A
 Frequencies --    470.8348               492.0342               498.9889
 Red. masses --      4.2426                 7.5692                11.8647
 Frc consts  --      0.5541                 1.0797                 1.7406
 IR Inten    --      9.3249                20.0500                 0.6729

                     49                     50                     51
                      A                      A                      A
 Frequencies --    521.8285               528.0727               539.3293
 Red. masses --      4.5462                10.5894                 4.9781
 Frc consts  --      0.7294                 1.7398                 0.8531
 IR Inten    --     35.9238                32.3435                10.9895

                     52                     53                     54
                      A                      A                      A
 Frequencies --    567.6423               568.9785               578.1316
 Red. masses --      4.1882                10.2175                11.1976
 Frc consts  --      0.7951                 1.9489                 2.2051
 IR Inten    --     46.7822                32.4016               252.6262

                     55                     56                     57
                      A                      A                      A
 Frequencies --    606.4064               613.5563               632.2582
 Red. masses --      6.7592                 8.0327                 5.6920
 Frc consts  --      1.4644                 1.7817                 1.3406
 IR Inten    --     37.5979                 4.1536                 9.5757

                     58                     59                     60
                      A                      A                      A
 Frequencies --    675.1426               680.4750               682.7382
 Red. masses --      7.5608                11.3024                 6.4854
 Frc consts  --      2.0305                 3.0835                 1.7811
 IR Inten    --      1.4273                58.1507                43.2865

                     61                     62                     63
                      A                      A                      A
 Frequencies --    708.4855               719.2061               734.0789
 Red. masses --      2.5138                 9.1975                 5.5830
 Frc consts  --      0.7434                 2.8030                 1.7726
 IR Inten    --     30.1881                 6.9342                67.8443

                     64                     65                     66
                      A                      A                      A
 Frequencies --    813.3576               841.7131               847.0697
 Red. masses --      8.2816                 3.8275                10.1102
 Frc consts  --      3.2280                 1.5977                 4.2741
 IR Inten    --    435.3332               134.4136               145.6259

                     67                     68                     69
                      A                      A                      A
 Frequencies --    865.6221               883.8181               915.1570
 Red. masses --     11.9769                 3.9306                 1.5876
 Frc consts  --      5.2875                 1.8090                 0.7834
 IR Inten    --     23.8516                56.0407                66.7160

                     70                     71                     72
                      A                      A                      A
 Frequencies --    936.1215               944.0617               959.7452
 Red. masses --      2.7655                 1.4145                 1.3669
 Frc consts  --      1.4279                 0.7428                 0.7418
 IR Inten    --     24.3353                 6.7907                 6.8301

                     73                     74                     75
                      A                      A                      A
 Frequencies --    980.0748               989.4807              1014.5020
 Red. masses --      4.7714                 4.1319                 5.8945
 Frc consts  --      2.7003                 2.3835                 3.5744
 IR Inten    --     14.3089                44.1628                13.4203

                     76                     77                     78
                      A                      A                      A
 Frequencies --   1018.9731              1036.1230              1050.8222
 Red. masses --      4.1167                 4.0542                 3.5735
 Frc consts  --      2.5184                 2.5643                 2.3249
 IR Inten    --     37.2880                11.1407               131.5495

                     79                     80                     81
                      A                      A                      A
 Frequencies --   1092.6449              1121.8519              1126.4222
 Red. masses --      3.0038                11.6583                 2.8521
 Frc consts  --      2.1129                 8.6449                 2.1321
 IR Inten    --     16.9356                60.1082               104.1737

                     82                     83                     84
                      A                      A                      A
 Frequencies --   1130.8175              1136.8135              1139.5366
 Red. masses --      2.3498                 2.3859                 1.8803
 Frc consts  --      1.7704                 1.8167                 1.4386
 IR Inten    --     80.4171                 5.0012                24.8680

                     85                     86                     87
                      A                      A                      A
 Frequencies --   1146.0213              1159.9510              1166.9277
 Red. masses --      2.8198                 4.0693                 3.7757
 Frc consts  --      2.1820                 3.2259                 3.0293
 IR Inten    --    210.2780               438.4816                83.9998

                     88                     89                     90
                      A                      A                      A
 Frequencies --   1171.5640              1180.6000              1182.8163
 Red. masses --      3.3765                 1.4426                 6.6136
 Frc consts  --      2.7306                 1.1847                 5.4516
 IR Inten    --    283.0342                53.2782               354.6242

                     91                     92                     93
                      A                      A                      A
 Frequencies --   1183.3419              1185.1034              1188.7473
 Red. masses --      1.2930                 1.5202                 1.4007
 Frc consts  --      1.0667                 1.2580                 1.1662
 IR Inten    --     10.0351                18.6596                13.7974

                     94                     95                     96
                      A                      A                      A
 Frequencies --   1191.2387              1197.8440              1198.7991
 Red. masses --      1.8684                10.4389                 3.0753
 Frc consts  --      1.5621                 8.8248                 2.6039
 IR Inten    --     46.2087               313.1430               146.2517

                     97                     98                     99
                      A                      A                      A
 Frequencies --   1207.8168              1214.8763              1225.0670
 Red. masses --      4.2259                 1.5373                 1.6322
 Frc consts  --      3.6322                 1.3368                 1.4433
 IR Inten    --    177.0321                98.5311                27.7385

                    100                    101                    102
                      A                      A                      A
 Frequencies --   1225.5925              1230.8150              1235.9950
 Red. masses --      7.2682                 7.2406                 1.9489
 Frc consts  --      6.4324                 6.4627                 1.7542
 IR Inten    --    177.6349               280.4154                16.7647

                    103                    104                    105
                      A                      A                      A
 Frequencies --   1239.5919              1266.6198              1295.4939
 Red. masses --      1.8044                 1.8176                 2.9774
 Frc consts  --      1.6336                 1.7181                 2.9441
 IR Inten    --     51.0145                 8.9222               735.5061

                    106                    107                    108
                      A                      A                      A
 Frequencies --   1303.6068              1308.6392              1337.3953
 Red. masses --      1.4861                 1.4123                 8.8824
 Frc consts  --      1.4880                 1.4250                 9.3605
 IR Inten    --      3.5798                67.6085               313.8530

                    109                    110                    111
                      A                      A                      A
 Frequencies --   1339.6701              1345.5759              1370.0900
 Red. masses --      1.4831                 1.2479                 1.2375
 Frc consts  --      1.5683                 1.3312                 1.3687
 IR Inten    --     25.6750                11.9736                17.1446

                    112                    113                    114
                      A                      A                      A
 Frequencies --   1370.6470              1385.8177              1389.1942
 Red. masses --      1.2090                 6.1702                 1.2867
 Frc consts  --      1.3382                 6.9817                 1.4631
 IR Inten    --     29.0832               193.0424                 0.4946

                    115                    116                    117
                      A                      A                      A
 Frequencies --   1398.5700              1400.6626              1414.3279
 Red. masses --      2.2831                 2.5399                 1.3175
 Frc consts  --      2.6311                 2.9359                 1.5528
 IR Inten    --      9.6241                 6.8586                 8.4008

                    118                    119                    120
                      A                      A                      A
 Frequencies --   1424.4261              1430.9625              1441.0489
 Red. masses --      1.4575                 1.3247                 1.3779
 Frc consts  --      1.7423                 1.5982                 1.6859
 IR Inten    --     30.9920                11.3765                13.1832

                    121                    122                    123
                      A                      A                      A
 Frequencies --   1483.5404              1489.6176              1492.0997
 Red. masses --      1.0916                 1.1718                 1.1648
 Frc consts  --      1.4155                 1.5320                 1.5279
 IR Inten    --      3.3330                 0.6469                 1.4223

                    124                    125                    126
                      A                      A                      A
 Frequencies --   1495.5444              1495.6022              1503.3826
 Red. masses --      1.1386                 3.8628                 1.0514
 Frc consts  --      1.5004                 5.0907                 1.4001
 IR Inten    --      5.4032                 3.3743                 3.9127

                    127                    128                    129
                      A                      A                      A
 Frequencies --   1503.4333              1505.1607              1506.0184
 Red. masses --      1.0680                 1.0560                 4.2863
 Frc consts  --      1.4223                 1.4096                 5.7278
 IR Inten    --     15.4299                 2.2668                 0.1621

                    130                    131                    132
                      A                      A                      A
 Frequencies --   1509.5033              1513.3964              1523.8034
 Red. masses --      1.1250                 1.0802                 1.0521
 Frc consts  --      1.5104                 1.4577                 1.4394
 IR Inten    --      1.3936                 6.3500                13.5715

                    133                    134                    135
                      A                      A                      A
 Frequencies --   1530.5324              1531.8190              1533.1669
 Red. masses --      1.0481                 1.0496                 1.0575
 Frc consts  --      1.4466                 1.4510                 1.4646
 IR Inten    --      5.9844                12.1838                10.4710

                    136                    137                    138
                      A                      A                      A
 Frequencies --   1664.0906              1685.9780              3016.7386
 Red. masses --      6.6143                 6.3229                 1.0823
 Frc consts  --     10.7916                10.5894                 5.8030
 IR Inten    --     18.4454                22.1323                24.7649

                    139                    140                    141
                      A                      A                      A
 Frequencies --   3032.8835              3033.0462              3034.1137
 Red. masses --      1.0356                 1.0375                 1.0389
 Frc consts  --      5.6124                 5.6232                 5.6347
 IR Inten    --     64.9160               102.1020                37.9676

                    142                    143                    144
                      A                      A                      A
 Frequencies --   3037.7231              3047.7417              3048.9429
 Red. masses --      1.0359                 1.0742                 1.0817
 Frc consts  --      5.6321                 5.8790                 5.9247
 IR Inten    --     69.7295                10.2364                19.6078

                    145                    146                    147
                      A                      A                      A
 Frequencies --   3057.1414              3070.7164              3096.9741
 Red. masses --      1.0753                 1.0848                 1.1062
 Frc consts  --      5.9214                 6.0267                 6.2509
 IR Inten    --     37.3200                67.6232                60.6561

                    148                    149                    150
                      A                      A                      A
 Frequencies --   3108.6839              3114.5692              3116.3329
 Red. masses --      1.0989                 1.1018                 1.0964
 Frc consts  --      6.2570                 6.2972                 6.2736
 IR Inten    --     47.6615                52.3316                45.4998

                    151                    152                    153
                      A                      A                      A
 Frequencies --   3138.2233              3156.7933              3159.4838
 Red. masses --      1.0988                 1.1034                 1.0881
 Frc consts  --      6.3758                 6.4786                 6.3996
 IR Inten    --     18.5720                43.3867                13.8068

                    154                    155                    156
                      A                      A                      A
 Frequencies --   3160.0766              3161.5301              3171.9771
 Red. masses --      1.1037                 1.1047                 1.1001
 Frc consts  --      6.4936                 6.5054                 6.5217
 IR Inten    --     34.0596                34.4716                26.4491

                    157                    158                    159
                      A                      A                      A
 Frequencies --   3254.5948              3255.2024              3260.6868
 Red. masses --      1.0924                 1.0922                 1.0921
 Frc consts  --      6.8174                 6.8185                 6.8414
 IR Inten    --      1.0955                 8.3000                 6.3333

 - Thermochemistry -
 -------------------
 Temperature   298.150 Kelvin.  Pressure   1.00000 Atm.
 Atom     1 has atomic number  6 and mass  12.00000

 Molecular mass:   512.09396 amu.
 Principal axes and moments of inertia in atomic units:
                           1         2         3
     Eigenvalues --  ******************************
           X            0.99994  -0.00083   0.01049
           Y           -0.00005   0.99646   0.08405
           Z           -0.01052  -0.08405   0.99641
 This molecule is an asymmetric top.
 Rotational symmetry number  1.
 Warning -- assumption of classical behavior for rotation
           may cause significant error
 Rotational temperatures (Kelvin)      0.00725     0.00389     0.00360
 Rotational constants (GHZ):           0.15115     0.08105     0.07495
 Zero-point vibrational energy    1083252.7 (Joules/Mol)
                                  258.90361 (Kcal/Mol)
 Warning -- explicit consideration of  56 degrees of freedom as
           vibrations may cause significant error
 Vibrational temperatures:     19.19    23.89    29.95    34.40    42.71
          (Kelvin)             53.40    55.86    73.48    77.16    87.42
                              102.00   113.87   122.20   142.31   144.47
                              156.49   167.53   215.82   222.57   230.89
                              241.01   252.00   265.24   272.46   282.24
                              323.72   337.16   350.85   366.47   371.55
                              404.36   411.29   417.91   421.89   449.53
                              464.38   494.72   506.25   512.93   526.33
                              592.09   603.07   632.75   649.50   664.20
                              677.43   707.93   717.93   750.79   759.78
                              775.97   816.71   818.63   831.80   872.48
                              882.77   909.68   971.38   979.05   982.31
                             1019.35  1034.78  1056.18  1170.24  1211.04
                             1218.74  1245.44  1271.62  1316.71  1346.87
                             1358.29  1380.86  1410.11  1423.64  1459.64
                             1466.08  1490.75  1511.90  1572.07  1614.09
                             1620.67  1626.99  1635.62  1639.54  1648.87
                             1668.91  1678.95  1685.62  1698.62  1701.81
                             1702.57  1705.10  1710.34  1713.93  1723.43
                             1724.80  1737.78  1747.94  1762.60  1763.35
                             1770.87  1778.32  1783.50  1822.38  1863.93
                             1875.60  1882.84  1924.21  1927.49  1935.98
                             1971.25  1972.06  1993.88  1998.74  2012.23
                             2015.24  2034.90  2049.43  2058.84  2073.35
                             2134.48  2143.23  2146.80  2151.75  2151.84
                             2163.03  2163.11  2165.59  2166.82  2171.84
                             2177.44  2192.41  2202.09  2203.95  2205.89
                             2394.26  2425.75  4340.41  4363.64  4363.88
                             4365.41  4370.61  4385.02  4386.75  4398.54
                             4418.08  4455.86  4472.70  4481.17  4483.71
                             4515.20  4541.92  4545.79  4546.65  4548.74
                             4563.77  4682.64  4683.51  4691.40

 Zero-point correction=                           0.412589 (Hartree/Particle)
 Thermal correction to Energy=                    0.446378
 Thermal correction to Enthalpy=                  0.447322
 Thermal correction to Gibbs Free Energy=         0.341720
 Sum of electronic and zero-point Energies=          -2302.415733
 Sum of electronic and thermal Energies=             -2302.381945
 Sum of electronic and thermal Enthalpies=           -2302.381000
 Sum of electronic and thermal Free Energies=        -2302.486603

                     E (Thermal)             CV                S
                      KCal/Mol        Cal/Mol-Kelvin    Cal/Mol-Kelvin
 Total                  280.106            120.791            222.259
 Electronic               0.000              0.000              0.000
 Translational            0.889              2.981             44.587
 Rotational               0.889              2.981             37.102
 Vibrational            278.329            114.830            140.570
 Vibration     1          0.593              1.987              7.439
 Vibration     2          0.593              1.986              7.004
 Vibration     3          0.593              1.986              6.555
 Vibration     4          0.593              1.985              6.280
 Vibration     5          0.593              1.984              5.851
 Vibration     6          0.594              1.982              5.407
 Vibration     7          0.594              1.981              5.318
 Vibration     8          0.595              1.977              4.775
 Vibration     9          0.596              1.976              4.679
 Vibration    10          0.597              1.973              4.432
 Vibration    11          0.598              1.968              4.128
 Vibration    12          0.600              1.963              3.912
 Vibration    13          0.601              1.960              3.773
 Vibration    14          0.604              1.950              3.476
 Vibration    15          0.604              1.949              3.446
 Vibration    16          0.606              1.942              3.291
 Vibration    17          0.608              1.936              3.159
 Vibration    18          0.618              1.903              2.672
 Vibration    19          0.620              1.897              2.614
 Vibration    20          0.622              1.891              2.544
 Vibration    21          0.624              1.882              2.463
 Vibration    22          0.627              1.873              2.379
 Vibration    23          0.631              1.861              2.284
 Vibration    24          0.633              1.855              2.234
 Vibration    25          0.636              1.845              2.169
 Vibration    26          0.650              1.803              1.919
 Vibration    27          0.654              1.788              1.845
 Vibration    28          0.659              1.773              1.775
 Vibration    29          0.665              1.755              1.698
 Vibration    30          0.667              1.749              1.674
 Vibration    31          0.681              1.709              1.527
 Vibration    32          0.684              1.700              1.498
 Vibration    33          0.686              1.691              1.471
 Vibration    34          0.688              1.686              1.455
 Vibration    35          0.701              1.650              1.349
 Vibration    36          0.708              1.630              1.296
 Vibration    37          0.723              1.588              1.194
 Vibration    38          0.728              1.571              1.158
 Vibration    39          0.732              1.562              1.137
 Vibration    40          0.739              1.543              1.097
 Vibration    41          0.775              1.445              0.921
 Vibration    42          0.782              1.429              0.895
 Vibration    43          0.800              1.383              0.827
 Vibration    44          0.810              1.358              0.791
 Vibration    45          0.819              1.335              0.761
 Vibration    46          0.828              1.315              0.735
 Vibration    47          0.848              1.268              0.678
 Vibration    48          0.854              1.252              0.661
 Vibration    49          0.877              1.202              0.606
 Vibration    50          0.883              1.188              0.592
 Vibration    51          0.894              1.163              0.567
 Vibration    52          0.924              1.101              0.509
 Vibration    53          0.925              1.098              0.506
 Vibration    54          0.935              1.079              0.489
 Vibration    55          0.965              1.018              0.439
 Vibration    56          0.973              1.003              0.427

                           ! Non-Optimized Parameters !
 Normal termination of Gaussian 16 at Sat Jun 15 07:48:09 2019.
