 Gaussian 16, Revision A.03,
 Gaussian 16:  AS64L-G16RevA.03 25-Dec-2016

 ----------------------------------------------------------------------
 #p opt freq=noraman pop=none 6-31g* scrf=(pcm,solvent=tetrahydrofuran)
  pbe1pbe extrabasis
 ----------------------------------------------------------------------

 -----
 title
 -----
 Symbolic Z-matrix:
 Charge =  0 Multiplicity = 1

 SCF Done:  E(RPBE1PBE) =  -2295.96173488     A.U. after   13 cycles
 SCF Done:  E(RPBE1PBE) =  -2295.96173485     A.U. after    6 cycles
 SCF Done:  E(RPBE1PBE) =  -2295.96173490     A.U. after    6 cycles
 Optimization completed.
    -- Stationary point found.
 Normal termination of Gaussian 16 at Sat Jun 15 09:17:01 2019.

 --------------------------------------------------------------------
 #P Geom=AllCheck Guess=TCheck SCRF=Check GenChk RPBE1PBE/ChkBas Freq
 --------------------------------------------------------------------

 Structure from the checkpoint file:  "/scratch/users/ekwan/clay_new-glu_gluC6-bisCF3-sm-pbe0-custom-pcm_thf/Gau-19813.chk"
 -----
 title
 -----
 Charge =  0 Multiplicity = 1

                         Standard orientation:
 ---------------------------------------------------------------------
 Center     Atomic      Atomic             Coordinates (Angstroms)
 Number     Number       Type             X           Y           Z
 ---------------------------------------------------------------------
      1          6           0        3.487409   -0.189771    0.740806
      2          6           0        3.351494   -0.462675   -0.754603
      3          6           0        1.885493   -0.382609   -1.200663
      4          6           0        1.307714    1.071178    0.592461
      5          6           0        2.746223    1.091870    1.106190
      6          1           0        1.787137   -0.444438   -2.285849
      7          1           0        3.872453    0.347903   -1.290930
      8          1           0        3.045014   -1.022206    1.307837
      9          1           0        0.752883    0.286598    1.127446
     10          1           0        3.265244    1.943926    0.646513
     11          8           0        1.271000    0.791935   -0.815507
     12          8           0        1.222274   -1.538122   -0.623374
     13          8           0        3.937974   -1.698903   -1.051926
     14          8           0        4.841352   -0.020484    1.093957
     15          8           0        2.692217    1.237654    2.507681
     16          6           0        0.587763    2.388157    0.838102
     17          1           0        0.460955    2.484782    1.920507
     18          1           0       -0.408672    2.347409    0.375215
     19          8           0        1.288140    3.532447    0.415533
     20         16           0       -0.073736   -2.160537   -1.363809
     21          8           0       -0.165363   -3.517011   -0.856753
     22          8           0        0.030000   -1.893296   -2.791590
     23          6           0       -1.436134   -1.223939   -0.712005
     24          6           0       -2.080866   -1.683872    0.430302
     25          6           0       -1.823951   -0.055908   -1.358668
     26          6           0       -3.146604   -0.944524    0.934137
     27          1           0       -1.760933   -2.603124    0.909309
     28          6           0       -2.884826    0.672082   -0.831272
     29          1           0       -1.314018    0.274661   -2.256610
     30          6           0       -3.548328    0.233032    0.311174
     31          1           0       -4.378172    0.805049    0.712286
     32          6           0        4.311010   -1.858781   -2.406596
     33          1           0        3.440949   -1.917352   -3.073820
     34          1           0        4.961104   -1.037091   -2.737596
     35          1           0        4.861388   -2.799466   -2.470588
     36          6           0        5.455698   -1.173145    1.634037
     37          1           0        6.482662   -0.892698    1.881899
     38          1           0        4.946670   -1.501036    2.551602
     39          1           0        5.467985   -1.999891    0.915754
     40          6           0        3.544122    2.245606    3.014926
     41          1           0        3.404573    2.258882    4.098963
     42          1           0        4.594629    2.030758    2.787498
     43          1           0        3.278540    3.230859    2.607698
     44          6           0        1.125691    3.850968   -0.951682
     45          1           0        1.541309    4.851984   -1.093917
     46          1           0        0.061909    3.863521   -1.229708
     47          1           0        1.649649    3.146266   -1.607495
     48          6           0       -3.906963   -1.455453    2.128308
     49          9           0       -3.119660   -2.172486    2.941115
     50          9           0       -4.922222   -2.249163    1.753470
     51          9           0       -4.430901   -0.450055    2.842820
     52          6           0       -3.276626    1.976430   -1.469626
     53          9           0       -2.587621    3.003038   -0.933272
     54          9           0       -4.576487    2.242660   -1.294365
     55          9           0       -3.025792    1.977967   -2.784347
 ---------------------------------------------------------------------

 SCF Done:  E(RPBE1PBE) =  -2295.96173490     A.U. after    1 cycles

 Isotropic polarizability for W=    0.000000      279.16 Bohr**3.
 End of Minotr F.D. properties file   721 does not exist.

                      1                      2                      3
                      A                      A                      A
 Frequencies --     12.8433                19.2609                20.5173
 Red. masses --      9.2778                 8.7933                10.3270
 Frc consts  --      0.0009                 0.0019                 0.0026
 IR Inten    --      0.1274                 0.2459                 0.1251

                      4                      5                      6
                      A                      A                      A
 Frequencies --     25.4542                38.6166                39.0688
 Red. masses --     11.7977                 4.3339                 5.4870
 Frc consts  --      0.0045                 0.0038                 0.0049
 IR Inten    --      0.0238                 0.3496                 0.7743

                      7                      8                      9
                      A                      A                      A
 Frequencies --     50.4803                53.9283                55.2404
 Red. masses --      4.2398                 4.8340                 3.4148
 Frc consts  --      0.0064                 0.0083                 0.0061
 IR Inten    --      1.6066                 0.0681                 2.4813

                     10                     11                     12
                      A                      A                      A
 Frequencies --     65.8107                71.0409                81.7527
 Red. masses --      3.0060                 3.7907                 3.4818
 Frc consts  --      0.0077                 0.0113                 0.0137
 IR Inten    --      8.7479                 0.4548                 0.7625

                     13                     14                     15
                      A                      A                      A
 Frequencies --     83.6113               100.2221               101.5203
 Red. masses --      2.5835                12.2309                 7.1902
 Frc consts  --      0.0106                 0.0724                 0.0437
 IR Inten    --      5.1964                 2.7553                 4.1670

                     16                     17                     18
                      A                      A                      A
 Frequencies --    111.4624               117.2606               150.9311
 Red. masses --      3.1733                 4.5515                 7.5387
 Frc consts  --      0.0232                 0.0369                 0.1012
 IR Inten    --      2.2016                 2.4685                 0.1590

                     19                     20                     21
                      A                      A                      A
 Frequencies --    156.4283               163.1140               170.1751
 Red. masses --      1.4394                 1.9720                 3.6036
 Frc consts  --      0.0208                 0.0309                 0.0615
 IR Inten    --      0.2272                 0.6884                 1.5139

                     22                     23                     24
                      A                      A                      A
 Frequencies --    180.9435               187.1589               193.3124
 Red. masses --      1.6664                 3.3900                 1.7285
 Frc consts  --      0.0321                 0.0700                 0.0381
 IR Inten    --      2.4547                 4.6771                 1.8269

                     25                     26                     27
                      A                      A                      A
 Frequencies --    199.6239               227.1177               236.1355
 Red. masses --      1.7009                 2.8278                12.0190
 Frc consts  --      0.0399                 0.0859                 0.3949
 IR Inten    --      0.4529                10.8749                 0.0848

                     28                     29                     30
                      A                      A                      A
 Frequencies --    246.9698               256.9517               260.3997
 Red. masses --      4.0065                 3.6285                 5.6654
 Frc consts  --      0.1440                 0.1412                 0.2263
 IR Inten    --      5.9106                10.4685                11.5244

                     31                     32                     33
                      A                      A                      A
 Frequencies --    283.1891               287.8662               292.6018
 Red. masses --     11.2328                 4.9481                 9.3036
 Frc consts  --      0.5308                 0.2416                 0.4693
 IR Inten    --      3.0331                 9.7688                 5.8376

                     34                     35                     36
                      A                      A                      A
 Frequencies --    295.2809               313.9477               325.2425
 Red. masses --      8.1539                 5.4250                 4.1315
 Frc consts  --      0.4189                 0.3150                 0.2575
 IR Inten    --      9.0653                 0.2302                 5.3540

                     37                     38                     39
                      A                      A                      A
 Frequencies --    345.6790               354.2532               359.3487
 Red. masses --      7.1628                 6.4346                 4.7441
 Frc consts  --      0.5043                 0.4758                 0.3609
 IR Inten    --      0.5437                 3.4050                 5.9552

                     40                     41                     42
                      A                      A                      A
 Frequencies --    370.4018               414.4220               421.9087
 Red. masses --      9.4708                10.0573                 8.8153
 Frc consts  --      0.7656                 1.0177                 0.9245
 IR Inten    --     14.9230                15.5793                 6.5068

                     43                     44                     45
                      A                      A                      A
 Frequencies --    444.9392               454.9568               465.7431
 Red. masses --      2.1598                 5.1703                 8.6927
 Frc consts  --      0.2519                 0.6305                 1.1110
 IR Inten    --      6.9698                13.0621                18.7564

                     46                     47                     48
                      A                      A                      A
 Frequencies --    473.6033               496.7028               502.9823
 Red. masses --      4.0900                 7.7142                11.9008
 Frc consts  --      0.5405                 1.1213                 1.7739
 IR Inten    --      8.2060                20.2922                 0.7923

                     49                     50                     51
                      A                      A                      A
 Frequencies --    526.5815               533.2879               543.6992
 Red. masses --      4.6611                10.3743                 4.9086
 Frc consts  --      0.7615                 1.7383                 0.8549
 IR Inten    --     35.7434                33.5810                11.6151

                     52                     53                     54
                      A                      A                      A
 Frequencies --    571.5294               573.8004               583.1955
 Red. masses --      3.8112                13.6699                11.1621
 Frc consts  --      0.7335                 2.6518                 2.2368
 IR Inten    --     41.6251                25.1283               261.5162

                     55                     56                     57
                      A                      A                      A
 Frequencies --    611.4599               618.1802               637.7565
 Red. masses --      6.7399                 8.0545                 5.6914
 Frc consts  --      1.4847                 1.8135                 1.3639
 IR Inten    --     39.5613                 4.4972                10.6367

                     58                     59                     60
                      A                      A                      A
 Frequencies --    679.9320               684.9960               689.5271
 Red. masses --      7.5833                12.4397                 5.9082
 Frc consts  --      2.0656                 3.4390                 1.6550
 IR Inten    --      1.2580                59.8748                34.2224

                     61                     62                     63
                      A                      A                      A
 Frequencies --    712.0716               725.0786               740.8947
 Red. masses --      2.4771                 9.1261                 5.7022
 Frc consts  --      0.7400                 2.8269                 1.8442
 IR Inten    --     32.6862                 6.4693                58.3866

                     64                     65                     66
                      A                      A                      A
 Frequencies --    827.0948               852.5152               857.6638
 Red. masses --      7.1677                 3.6940                12.0042
 Frc consts  --      2.8890                 1.5818                 5.2026
 IR Inten    --    312.6504                43.6291               338.3172

                     67                     68                     69
                      A                      A                      A
 Frequencies --    872.3292               895.6129               921.0161
 Red. masses --     11.9717                 3.8821                 1.6098
 Frc consts  --      5.3674                 1.8346                 0.8045
 IR Inten    --     20.9539                78.4830                70.6055

                     70                     71                     72
                      A                      A                      A
 Frequencies --    945.5462               949.7401               964.2904
 Red. masses --      2.6140                 1.4308                 1.3680
 Frc consts  --      1.3770                 0.7604                 0.7495
 IR Inten    --     20.2811                 7.7357                 5.9322

                     73                     74                     75
                      A                      A                      A
 Frequencies --    991.1850               999.2630              1018.0304
 Red. masses --      4.7140                 4.0333                 6.3309
 Frc consts  --      2.7286                 2.3728                 3.8658
 IR Inten    --     19.0200                45.7496                 4.8325

                     76                     77                     78
                      A                      A                      A
 Frequencies --   1029.9492              1047.9239              1061.0568
 Red. masses --      3.9051                 3.8138                 3.6916
 Frc consts  --      2.4407                 2.4675                 2.4487
 IR Inten    --     47.9989                 9.0679               132.6531

                     79                     80                     81
                      A                      A                      A
 Frequencies --   1102.6884              1131.3239              1135.0953
 Red. masses --      2.8946                 9.4978                 2.7527
 Frc consts  --      2.0737                 7.1622                 2.0897
 IR Inten    --     15.6492                47.7427                90.3235

                     82                     83                     84
                      A                      A                      A
 Frequencies --   1140.3645              1145.2822              1146.9066
 Red. masses --      2.1988                 1.8222                 2.2733
 Frc consts  --      1.6847                 1.4082                 1.7618
 IR Inten    --     88.8411                25.8196                 1.4496

                     85                     86                     87
                      A                      A                      A
 Frequencies --   1157.2435              1172.7811              1180.2607
 Red. masses --      2.5557                 4.6036                 3.1263
 Frc consts  --      2.0166                 3.7306                 2.5659
 IR Inten    --    198.7725               418.1634                95.6311

                     88                     89                     90
                      A                      A                      A
 Frequencies --   1183.8609              1187.0442              1189.4081
 Red. masses --      2.3601                 1.4550                 1.2930
 Frc consts  --      1.9489                 1.2079                 1.0777
 IR Inten    --    225.4748                38.9155                 4.9188

                     91                     92                     93
                      A                      A                      A
 Frequencies --   1190.7544              1193.9560              1198.8117
 Red. masses --      1.3781                 1.3168                 5.4686
 Frc consts  --      1.1512                 1.1060                 4.6305
 IR Inten    --      8.2944                13.2430               356.4475

                     94                     95                     96
                      A                      A                      A
 Frequencies --   1200.8109              1210.5415              1215.4682
 Red. masses --      2.4357                 2.9735                12.5181
 Frc consts  --      2.0693                 2.5673                10.8962
 IR Inten    --    119.0371                95.1789               333.6522

                     97                     98                     99
                      A                      A                      A
 Frequencies --   1221.2174              1222.7504              1232.1669
 Red. masses --      1.9653                 3.4741                 1.6914
 Frc consts  --      1.7269                 3.0603                 1.5130
 IR Inten    --    115.9195               231.1113                37.0806

                    100                    101                    102
                      A                      A                      A
 Frequencies --   1241.4660              1244.5750              1247.2873
 Red. masses --      7.8817                 1.9137                 7.5755
 Frc consts  --      7.1572                 1.7465                 6.9438
 IR Inten    --    170.2785                 8.3130               277.5519

                    103                    104                    105
                      A                      A                      A
 Frequencies --   1248.5416              1272.7219              1304.2450
 Red. masses --      2.1737                 1.8626                 2.2307
 Frc consts  --      1.9964                 1.7776                 2.2357
 IR Inten    --     84.6015                10.2556               553.0730

                    106                    107                    108
                      A                      A                      A
 Frequencies --   1308.8175              1312.4600              1346.2797
 Red. masses --      1.5041                 1.6816                 1.3386
 Frc consts  --      1.5180                 1.7066                 1.4295
 IR Inten    --      6.3656               259.2073                 3.1660

                    109                    110                    111
                      A                      A                      A
 Frequencies --   1351.5540              1352.9819              1375.0662
 Red. masses --      1.3565                10.8701                 1.2366
 Frc consts  --      1.4600                11.7238                 1.3776
 IR Inten    --     18.4247               335.6677                 9.3845

                    112                    113                    114
                      A                      A                      A
 Frequencies --   1376.2983              1395.8385              1397.0602
 Red. masses --      1.2376                 1.3052                 6.2304
 Frc consts  --      1.3812                 1.4983                 7.1646
 IR Inten    --     35.2461                 0.9659               192.5376

                    115                    116                    117
                      A                      A                      A
 Frequencies --   1404.2935              1408.2749              1419.4892
 Red. masses --      4.8879                 1.6009                 1.3230
 Frc consts  --      5.6792                 1.8706                 1.5706
 IR Inten    --      1.9026                16.3852                 8.9003

                    118                    119                    120
                      A                      A                      A
 Frequencies --   1432.0791              1436.1160              1448.1037
 Red. masses --      1.5075                 1.3423                 1.4069
 Frc consts  --      1.8215                 1.6310                 1.7383
 IR Inten    --     30.8956                12.3121                12.8679

                    121                    122                    123
                      A                      A                      A
 Frequencies --   1487.6702              1495.1694              1496.6013
 Red. masses --      1.0890                 1.1782                 1.1691
 Frc consts  --      1.4200                 1.5519                 1.5428
 IR Inten    --      3.1317                 0.9047                 1.3159

                    124                    125                    126
                      A                      A                      A
 Frequencies --   1499.4453              1504.2585              1507.4178
 Red. masses --      1.1324                 4.0857                 1.0507
 Frc consts  --      1.5001                 5.4470                 1.4067
 IR Inten    --      6.3088                 2.1948                 3.8428

                    127                    128                    129
                      A                      A                      A
 Frequencies --   1508.4084              1509.2887              1514.0228
 Red. masses --      1.0639                 1.0538                 1.1733
 Frc consts  --      1.4263                 1.4144                 1.5846
 IR Inten    --     15.9142                 1.2619                 1.6721

                    130                    131                    132
                      A                      A                      A
 Frequencies --   1514.3527              1517.2031              1527.3062
 Red. masses --      3.8644                 1.0830                 1.0533
 Frc consts  --      5.2214                 1.4688                 1.4476
 IR Inten    --      0.1811                 6.0174                13.6738

                    133                    134                    135
                      A                      A                      A
 Frequencies --   1533.7163              1534.9435              1536.7642
 Red. masses --      1.0495                 1.0484                 1.0573
 Frc consts  --      1.4545                 1.4553                 1.4712
 IR Inten    --     10.6260                 7.2099                11.1228

                    136                    137                    138
                      A                      A                      A
 Frequencies --   1677.0456              1698.0375              3028.6026
 Red. masses --      6.7400                 6.4661                 1.0820
 Frc consts  --     11.1687                10.9847                 5.8474
 IR Inten    --     20.7151                24.6134                22.8824

                    139                    140                    141
                      A                      A                      A
 Frequencies --   3042.3623              3043.9753              3044.3754
 Red. masses --      1.0355                 1.0386                 1.0367
 Frc consts  --      5.6469                 5.6698                 5.6609
 IR Inten    --     79.8085                78.4794                35.8980

                    142                    143                    144
                      A                      A                      A
 Frequencies --   3047.0866              3058.3906              3059.3475
 Red. masses --      1.0352                 1.0779                 1.0814
 Frc consts  --      5.6627                 5.9405                 5.9633
 IR Inten    --     64.8908                12.1270                13.4681

                    145                    146                    147
                      A                      A                      A
 Frequencies --   3069.3231              3081.7828              3108.3437
 Red. masses --      1.0717                 1.0849                 1.1062
 Frc consts  --      5.9484                 6.0706                 6.2972
 IR Inten    --     40.8940                61.3807                58.0629

                    148                    149                    150
                      A                      A                      A
 Frequencies --   3120.7369              3124.4496              3127.2661
 Red. masses --      1.1002                 1.1031                 1.0972
 Frc consts  --      6.3130                 6.3445                 6.3220
 IR Inten    --     43.9274                49.6585                45.1072

                    151                    152                    153
                      A                      A                      A
 Frequencies --   3148.6488              3167.4334              3167.9719
 Red. masses --      1.0996                 1.1025                 1.0892
 Frc consts  --      6.4229                 6.5171                 6.4404
 IR Inten    --     17.7143                40.3448                12.8751

                    154                    155                    156
                      A                      A                      A
 Frequencies --   3170.6218              3172.0856              3182.4054
 Red. masses --      1.1035                 1.1047                 1.1004
 Frc consts  --      6.5360                 6.5490                 6.5661
 IR Inten    --     34.3075                33.1344                25.3081

                    157                    158                    159
                      A                      A                      A
 Frequencies --   3261.0588              3263.1726              3268.3483
 Red. masses --      1.0925                 1.0925                 1.0924
 Frc consts  --      6.8453                 6.8540                 6.8755
 IR Inten    --      1.8972                 8.0385                 6.2402

 - Thermochemistry -
 -------------------
 Temperature   298.150 Kelvin.  Pressure   1.00000 Atm.
 Atom     1 has atomic number  6 and mass  12.00000

 Molecular mass:   512.09396 amu.
 Principal axes and moments of inertia in atomic units:
                           1         2         3
     Eigenvalues --  ******************************
           X            0.99995  -0.00050   0.01039
           Y           -0.00043   0.99599   0.08950
           Z           -0.01039  -0.08950   0.99593
 This molecule is an asymmetric top.
 Rotational symmetry number  1.
 Warning -- assumption of classical behavior for rotation
           may cause significant error
 Rotational temperatures (Kelvin)      0.00728     0.00391     0.00363
 Rotational constants (GHZ):           0.15170     0.08152     0.07560
 Zero-point vibrational energy    1089483.1 (Joules/Mol)
                                  260.39272 (Kcal/Mol)
 Warning -- explicit consideration of  56 degrees of freedom as
           vibrations may cause significant error
 Vibrational temperatures:     18.48    27.71    29.52    36.62    55.56
          (Kelvin)             56.21    72.63    77.59    79.48    94.69
                              102.21   117.62   120.30   144.20   146.07
                              160.37   168.71   217.16   225.07   234.68
                              244.84   260.34   269.28   278.13   287.21
                              326.77   339.75   355.33   369.70   374.66
                              407.45   414.18   420.99   424.84   451.70
                              467.95   497.36   509.69   517.02   532.93
                              596.26   607.03   640.17   654.58   670.10
                              681.41   714.64   723.68   757.63   767.28
                              782.26   822.30   825.57   839.09   879.75
                              889.42   917.59   978.27   985.56   992.08
                             1024.51  1043.23  1065.98  1190.00  1226.58
                             1233.99  1255.09  1288.59  1325.14  1360.43
                             1366.46  1387.40  1426.09  1437.72  1464.72
                             1481.87  1507.73  1526.62  1586.52  1627.72
                             1633.15  1640.73  1647.81  1650.14  1665.02
                             1687.37  1698.13  1703.31  1707.89  1711.29
                             1713.23  1717.84  1724.82  1727.70  1741.70
                             1748.79  1757.06  1759.27  1772.81  1786.19
                             1790.67  1794.57  1796.37  1831.16  1876.52
                             1883.10  1888.34  1937.00  1944.58  1946.64
                             1978.41  1980.19  2008.30  2010.06  2020.47
                             2026.19  2042.33  2060.44  2066.25  2083.50
                             2140.43  2151.22  2153.28  2157.37  2164.29
                             2168.84  2170.26  2171.53  2178.34  2178.82
                             2182.92  2197.45  2206.68  2208.44  2211.06
                             2412.89  2443.10  4357.48  4377.28  4379.60
                             4380.18  4384.08  4400.34  4401.72  4416.07
                             4434.00  4472.21  4490.04  4495.39  4499.44
                             4530.20  4557.23  4558.00  4561.82  4563.92
                             4578.77  4691.94  4694.98  4702.42

 Zero-point correction=                           0.414962 (Hartree/Particle)
 Thermal correction to Energy=                    0.448465
 Thermal correction to Enthalpy=                  0.449409
 Thermal correction to Gibbs Free Energy=         0.345108
 Sum of electronic and zero-point Energies=          -2295.546773
 Sum of electronic and thermal Energies=             -2295.513270
 Sum of electronic and thermal Enthalpies=           -2295.512326
 Sum of electronic and thermal Free Energies=        -2295.616627

                     E (Thermal)             CV                S
                      KCal/Mol        Cal/Mol-Kelvin    Cal/Mol-Kelvin
 Total                  281.416            120.039            219.521
 Electronic               0.000              0.000              0.000
 Translational            0.889              2.981             44.587
 Rotational               0.889              2.981             37.084
 Vibrational            279.639            114.077            137.850
 Vibration     1          0.593              1.987              7.514
 Vibration     2          0.593              1.986              6.709
 Vibration     3          0.593              1.986              6.583
 Vibration     4          0.593              1.985              6.155
 Vibration     5          0.594              1.981              5.329
 Vibration     6          0.594              1.981              5.306
 Vibration     7          0.595              1.977              4.798
 Vibration     8          0.596              1.976              4.668
 Vibration     9          0.596              1.975              4.620
 Vibration    10          0.597              1.971              4.275
 Vibration    11          0.598              1.968              4.124
 Vibration    12          0.600              1.962              3.848
 Vibration    13          0.601              1.960              3.804
 Vibration    14          0.604              1.949              3.450
 Vibration    15          0.604              1.948              3.425
 Vibration    16          0.607              1.940              3.243
 Vibration    17          0.608              1.935              3.145
 Vibration    18          0.618              1.902              2.660
 Vibration    19          0.620              1.895              2.593
 Vibration    20          0.623              1.888              2.513
 Vibration    21          0.625              1.879              2.434
 Vibration    22          0.630              1.866              2.319
 Vibration    23          0.632              1.857              2.256
 Vibration    24          0.635              1.849              2.196
 Vibration    25          0.638              1.840              2.137
 Vibration    26          0.651              1.800              1.902
 Vibration    27          0.655              1.785              1.832
 Vibration    28          0.661              1.768              1.752
 Vibration    29          0.667              1.751              1.682
 Vibration    30          0.668              1.745              1.659
 Vibration    31          0.682              1.705              1.514
 Vibration    32          0.685              1.696              1.486
 Vibration    33          0.688              1.688              1.459
 Vibration    34          0.689              1.683              1.444
 Vibration    35          0.702              1.647              1.341
 Vibration    36          0.709              1.625              1.284
 Vibration    37          0.724              1.584              1.186
 Vibration    38          0.730              1.567              1.147
 Vibration    39          0.734              1.556              1.125
 Vibration    40          0.742              1.533              1.078
 Vibration    41          0.778              1.439              0.911
 Vibration    42          0.784              1.423              0.886
 Vibration    43          0.804              1.372              0.811
 Vibration    44          0.813              1.350              0.781
 Vibration    45          0.823              1.326              0.750
 Vibration    46          0.830              1.309              0.728
 Vibration    47          0.852              1.257              0.666
 Vibration    48          0.858              1.243              0.651
 Vibration    49          0.882              1.191              0.595
 Vibration    50          0.888              1.176              0.580
 Vibration    51          0.899              1.153              0.557
 Vibration    52          0.928              1.093              0.501
 Vibration    53          0.930              1.088              0.497
 Vibration    54          0.940              1.068              0.479
 Vibration    55          0.971              1.008              0.430
 Vibration    56          0.978              0.993              0.419

                           ! Non-Optimized Parameters !
 Normal termination of Gaussian 16 at Sat Jun 15 10:03:43 2019.
