 Gaussian 16, Revision A.03,
 Gaussian 16:  AS64L-G16RevA.03 25-Dec-2016

 ----------------------------------------------------------------------
 #p opt freq=noraman tpsstpss/6-31g(d) scrf=(solvent=tetrahydrofuran,pc
 m) pop=none empiricaldispersion=gd3bj extrabasis
 ----------------------------------------------------------------------

 -----
 title
 -----
 Symbolic Z-matrix:
 Charge =  0 Multiplicity = 1

 SCF Done:  E(RTPSS-TPSS) =  -2298.43309839     A.U. after   14 cycles
 SCF Done:  E(RTPSS-TPSS) =  -2298.43309845     A.U. after    6 cycles
 SCF Done:  E(RTPSS-TPSS) =  -2298.43309903     A.U. after    6 cycles
 SCF Done:  E(RTPSS-TPSS) =  -2298.43309788     A.U. after    6 cycles
 SCF Done:  E(RTPSS-TPSS) =  -2298.43309786     A.U. after    6 cycles
 Optimization completed.
    -- Stationary point found.

 1\1\GINC-NODE086\FOpt\RTPSSTPSS\Gen\C18H22F6O8S1\EKWAN\15-Jun-2019\0\\
 #p opt freq=noraman tpsstpss/6-31g(d) scrf=(solvent=tetrahydrofuran,pc
 m) pop=none empiricaldispersion=gd3bj extrabasis\\title\\0,1\C,3.39027
 96202,0.4037562677,0.5911254528\C,3.3319114137,-0.5183814307,-0.634989
 3223\C,1.8735188927,-0.8750129266,-0.9903916944\C,1.0156082917,1.11817
 07873,0.039943382\C,2.4289353191,1.5838803037,0.4128000603\H,1.7866709
 983,-1.4394612996,-1.9214356771\H,3.7333905927,0.0321360898,-1.5038450
 747\H,3.1016384844,-0.1599831729,1.491720283\H,0.584788627,0.551138813

 Normal termination of Gaussian 16 at Sat Jun 15 09:53:03 2019.

 ---------------------------------------------------------------------
 #P Geom=AllCheck Guess=TCheck SCRF=Check GenChk RTPSSTPSS/ChkBas Freq
 ---------------------------------------------------------------------

 Structure from the checkpoint file:  "/scratch/users/ekwan/clay_new-glu_gluC6-bisCF3-sm-tpsstpss_d3bj-custom-pcm_thf/Gau-28931.chk"
 -----
 title
 -----
 Charge =  0 Multiplicity = 1

                         Standard orientation:
 ---------------------------------------------------------------------
 Center     Atomic      Atomic             Coordinates (Angstroms)
 Number     Number       Type             X           Y           Z
 ---------------------------------------------------------------------
      1          6           0        3.390289    0.404813    0.590298
      2          6           0        3.331869   -0.519405   -0.634248
      3          6           0        1.873462   -0.876652   -0.988972
      4          6           0        1.015585    1.118270    0.038021
      5          6           0        2.428926    1.584624    0.410017
      6          1           0        1.786573   -1.442680   -1.919053
      7          1           0        3.733300    0.029641   -1.504056
      8          1           0        3.101698   -0.157400    1.491862
      9          1           0        0.584811    0.552659    0.877906
     10          1           0        2.805004    2.238540   -0.389635
     11          8           0        1.054305    0.245513   -1.133173
     12          8           0        1.408247   -1.742870    0.116463
     13          8           0        4.124809   -1.668453   -0.368051
     14          8           0        4.703028    0.952354    0.744133
     15          8           0        2.310390    2.311438    1.638056
     16          6           0        0.083977    2.290745   -0.279787
     17          1           0       -0.127664    2.802518    0.664929
     18          1           0       -0.857559    1.907018   -0.700326
     19          8           0        0.648904    3.281254   -1.137853
     20         16           0        0.094776   -2.699879   -0.177990
     21          8           0        0.080550   -3.638409    0.954611
     22          8           0        0.146024   -3.168602   -1.577247
     23          6           0       -1.285970   -1.566794   -0.008101
     24          6           0       -1.744961   -1.253447    1.274262
     25          6           0       -1.835944   -0.999663   -1.160890
     26          6           0       -2.798484   -0.338387    1.395382
     27          1           0       -1.294813   -1.709014    2.151682
     28          6           0       -2.887739   -0.089709   -1.012468
     29          1           0       -1.453876   -1.261450   -2.142342
     30          6           0       -3.371516    0.245279    0.259346
     31          1           0       -4.185510    0.957011    0.363900
     32          6           0        4.463506   -2.421260   -1.543271
     33          1           0        3.586934   -2.935117   -1.964800
     34          1           0        4.909521   -1.768869   -2.309883
     35          1           0        5.195631   -3.167510   -1.222753
     36          6           0        5.529539    0.223552    1.664071
     37          1           0        6.474860    0.773178    1.719232
     38          1           0        5.067256    0.192031    2.663573
     39          1           0        5.710187   -0.799898    1.312215
     40          6           0        3.003810    3.568755    1.614447
     41          1           0        2.825444    4.031477    2.590655
     42          1           0        4.081067    3.417814    1.464002
     43          1           0        2.604493    4.217526    0.820067
     44          6           0        0.640964    2.914567   -2.526090
     45          1           0        0.898285    3.822565   -3.081258
     46          1           0       -0.358389    2.566639   -2.830115
     47          1           0        1.374100    2.126481   -2.744916
     48          6           0       -3.354848   -0.019287    2.762314
     49          9           0       -2.406287   -0.139225    3.728492
     50          9           0       -4.373698   -0.860546    3.092641
     51          9           0       -3.847721    1.246867    2.817450
     52          6           0       -3.457168    0.601665   -2.226386
     53          9           0       -2.890888    1.835858   -2.400163
     54          9           0       -4.795924    0.799881   -2.110167
     55          9           0       -3.234326   -0.102715   -3.364501
 ---------------------------------------------------------------------

 SCF Done:  E(RTPSS-TPSS) =  -2298.43309786     A.U. after    2 cycles

 Isotropic polarizability for W=    0.000000      298.01 Bohr**3.
 End of Minotr F.D. properties file   721 does not exist.

                      1                      2                      3
                      A                      A                      A
 Frequencies --     16.4181                17.9310                21.4220
 Red. masses --      7.6127                 7.5960                17.8301
 Frc consts  --      0.0012                 0.0014                 0.0048
 IR Inten    --      0.3776                 0.0829                 0.0166

                      4                      5                      6
                      A                      A                      A
 Frequencies --     26.2006                33.3200                39.6822
 Red. masses --     12.8991                 4.7113                 5.3706
 Frc consts  --      0.0052                 0.0031                 0.0050
 IR Inten    --      0.0244                 0.3804                 1.1729

                      7                      8                      9
                      A                      A                      A
 Frequencies --     47.4868                52.0104                60.6356
 Red. masses --      2.9895                 4.2020                 3.7281
 Frc consts  --      0.0040                 0.0067                 0.0081
 IR Inten    --      1.4369                 1.1211                 4.1856

                     10                     11                     12
                      A                      A                      A
 Frequencies --     69.0680                71.2505                85.3508
 Red. masses --      3.5823                 4.1888                 2.8122
 Frc consts  --      0.0101                 0.0125                 0.0121
 IR Inten    --      3.0821                 0.7577                 3.3262

                     13                     14                     15
                      A                      A                      A
 Frequencies --     89.3076                95.3975                99.1405
 Red. masses --      3.0983                12.3041                 8.8983
 Frc consts  --      0.0146                 0.0660                 0.0515
 IR Inten    --      3.9942                 3.5952                 3.9012

                     16                     17                     18
                      A                      A                      A
 Frequencies --    109.2500               119.1622               145.6943
 Red. masses --      8.0086                 2.4520                 7.4431
 Frc consts  --      0.0563                 0.0205                 0.0931
 IR Inten    --      0.7715                 3.6653                 0.4356

                     19                     20                     21
                      A                      A                      A
 Frequencies --    149.5630               154.4049               162.4893
 Red. masses --      1.5968                 4.2493                 2.4057
 Frc consts  --      0.0210                 0.0597                 0.0374
 IR Inten    --      0.8266                 0.8063                 1.3096

                     22                     23                     24
                      A                      A                      A
 Frequencies --    172.5171               181.9379               187.0283
 Red. masses --      1.7439                 2.2567                 2.1452
 Frc consts  --      0.0306                 0.0440                 0.0442
 IR Inten    --      0.8353                 4.5290                 6.1237

                     25                     26                     27
                      A                      A                      A
 Frequencies --    200.4615               219.3821               221.7432
 Red. masses --      1.6833                 2.7993                 4.5131
 Frc consts  --      0.0399                 0.0794                 0.1307
 IR Inten    --      1.6497                 5.4338                 3.5988

                     28                     29                     30
                      A                      A                      A
 Frequencies --    234.4978               244.0683               252.9255
 Red. masses --      3.8500                 5.8387                 3.5309
 Frc consts  --      0.1247                 0.2049                 0.1331
 IR Inten    --      4.2638                11.0394                10.3621

                     31                     32                     33
                      A                      A                      A
 Frequencies --    267.8520               274.8271               280.1014
 Red. masses --     10.3830                 4.9794                 6.5423
 Frc consts  --      0.4389                 0.2216                 0.3024
 IR Inten    --      3.8337                13.0853                 9.2935

                     34                     35                     36
                      A                      A                      A
 Frequencies --    283.1358               302.2331               310.5680
 Red. masses --     12.1014                 5.3876                 4.0135
 Frc consts  --      0.5716                 0.2900                 0.2281
 IR Inten    --      2.9553                 0.3178                 4.8017

                     37                     38                     39
                      A                      A                      A
 Frequencies --    329.1637               336.7165               341.9049
 Red. masses --      7.3388                 7.0790                 4.4207
 Frc consts  --      0.4685                 0.4729                 0.3045
 IR Inten    --      1.3076                 7.7311                 7.0146

                     40                     41                     42
                      A                      A                      A
 Frequencies --    349.2913               394.2171               404.3170
 Red. masses --      9.7166                10.2729                 8.7041
 Frc consts  --      0.6985                 0.9406                 0.8383
 IR Inten    --     19.1900                17.0722                 8.3966

                     43                     44                     45
                      A                      A                      A
 Frequencies --    414.7869               432.4811               443.3603
 Red. masses --      2.1622                 6.0544                 9.2599
 Frc consts  --      0.2192                 0.6672                 1.0724
 IR Inten    --      7.2901                11.1431                27.9544

                     46                     47                     48
                      A                      A                      A
 Frequencies --    452.5575               466.9640               475.1518
 Red. masses --      4.2800                 7.3378                11.9328
 Frc consts  --      0.5165                 0.9427                 1.5873
 IR Inten    --      4.7073                13.9250                 1.5866

                     49                     50                     51
                      A                      A                      A
 Frequencies --    497.2464               504.1281               516.6877
 Red. masses --      5.5141                 7.8045                 5.1871
 Frc consts  --      0.8033                 1.1686                 0.8159
 IR Inten    --     47.5860                13.4269                24.7039

                     52                     53                     54
                      A                      A                      A
 Frequencies --    541.6510               545.9851               550.9753
 Red. masses --      8.0122                 5.0169                 8.0218
 Frc consts  --      1.3850                 0.8811                 1.4348
 IR Inten    --     93.0875                31.2430               141.2316

                     55                     56                     57
                      A                      A                      A
 Frequencies --    580.3484               590.4145               616.5025
 Red. masses --      6.8081                 8.0439                 5.8978
 Frc consts  --      1.3510                 1.6521                 1.3207
 IR Inten    --     22.8871                 3.0446                 8.8352

                     58                     59                     60
                      A                      A                      A
 Frequencies --    647.8331               650.3182               652.6336
 Red. masses --      7.1207                 7.9566                12.7482
 Frc consts  --      1.7608                 1.9826                 3.1992
 IR Inten    --     85.4730                 6.4803                51.4506

                     61                     62                     63
                      A                      A                      A
 Frequencies --    687.7060               689.5570               705.1887
 Red. masses --     10.8073                 2.8168                 5.4753
 Frc consts  --      3.0114                 0.7891                 1.6042
 IR Inten    --      5.4354                15.2476               192.8818

                     64                     65                     66
                      A                      A                      A
 Frequencies --    739.1759               796.7713               810.5993
 Red. masses --      8.5415                 4.5830                 6.9643
 Frc consts  --      2.7497                 1.7142                 2.6961
 IR Inten    --    444.2839                28.2108                30.4282

                     67                     68                     69
                      A                      A                      A
 Frequencies --    832.9248               841.9895               890.8484
 Red. masses --     11.7061                 4.3130                 1.6763
 Frc consts  --      4.7849                 1.8015                 0.7838
 IR Inten    --     37.6319                34.6720                87.8766

                     70                     71                     72
                      A                      A                      A
 Frequencies --    893.8840               923.4176               931.4257
 Red. masses --      2.6883                 1.3769                 4.9033
 Frc consts  --      1.2656                 0.6918                 2.5063
 IR Inten    --     18.1161                 0.1908                12.8387

                     73                     74                     75
                      A                      A                      A
 Frequencies --    932.9913               944.9110               970.8343
 Red. masses --      1.3633                 4.4685                 4.1858
 Frc consts  --      0.6992                 2.3507                 2.3244
 IR Inten    --      3.7478                27.0068                55.7220

                     76                     77                     78
                      A                      A                      A
 Frequencies --    984.5394               998.4348              1009.6585
 Red. masses --      4.6059                 6.4214                 3.6074
 Frc consts  --      2.6305                 3.7716                 2.1667
 IR Inten    --     19.1498                 2.6912               132.3325

                     79                     80                     81
                      A                      A                      A
 Frequencies --   1050.3853              1074.3326              1085.2391
 Red. masses --      3.0851                11.5640                 4.8207
 Frc consts  --      2.0055                 7.8638                 3.3451
 IR Inten    --     17.7084                56.3912               302.1559

                     82                     83                     84
                      A                      A                      A
 Frequencies --   1087.5632              1089.9017              1093.4740
 Red. masses --      6.3639                 5.4115                 4.5501
 Frc consts  --      4.4349                 3.7874                 3.2054
 IR Inten    --    174.4257               359.5362                61.6006

                     85                     86                     87
                      A                      A                      A
 Frequencies --   1105.8095              1107.1691              1113.0044
 Red. masses --      4.9186                 4.0197                 2.7422
 Frc consts  --      3.5437                 2.9031                 2.0015
 IR Inten    --    190.7881                95.2900               229.3967

                     88                     89                     90
                      A                      A                      A
 Frequencies --   1115.5935              1117.6988              1125.5139
 Red. masses --      3.4739                 3.4515                 6.2382
 Frc consts  --      2.5473                 2.5404                 4.6560
 IR Inten    --    422.9119               134.8418               229.3146

                     91                     92                     93
                      A                      A                      A
 Frequencies --   1125.5960              1142.1408              1151.9883
 Red. masses --      5.1401                 4.3904                 2.7066
 Frc consts  --      3.8370                 3.3744                 2.1163
 IR Inten    --     98.3642               145.3250                70.8773

                     94                     95                     96
                      A                      A                      A
 Frequencies --   1161.9477              1165.8671              1167.8944
 Red. masses --      5.7230                 1.2869                 1.2575
 Frc consts  --      4.5525                 1.0306                 1.0106
 IR Inten    --    157.4993                 3.5995                 1.0729

                     97                     98                     99
                      A                      A                      A
 Frequencies --   1168.6922              1169.8019              1174.6576
 Red. masses --      1.2774                 4.2067                 1.2739
 Frc consts  --      1.0279                 3.3917                 1.0356
 IR Inten    --      5.0144               211.1691                 1.0501

                    100                    101                    102
                      A                      A                      A
 Frequencies --   1192.4532              1202.1665              1208.0404
 Red. masses --      1.3129                 1.3767                 1.4727
 Frc consts  --      1.0999                 1.1723                 1.2663
 IR Inten    --     21.3172                18.1594                 5.7579

                    103                    104                    105
                      A                      A                      A
 Frequencies --   1217.6720              1242.9629              1253.8503
 Red. masses --      1.5341                 1.7398                 3.3083
 Frc consts  --      1.3402                 1.5837                 3.0644
 IR Inten    --     12.2908                 8.3675               802.2949

                    106                    107                    108
                      A                      A                      A
 Frequencies --   1275.8662              1279.1467              1298.6252
 Red. masses --     10.1503                 1.4742                 1.2991
 Frc consts  --      9.7351                 1.4211                 1.2908
 IR Inten    --    217.0491                 4.7007                28.9072

                    109                    110                    111
                      A                      A                      A
 Frequencies --   1307.1323              1321.8966              1337.8700
 Red. masses --      1.3916                 1.1648                 4.9871
 Frc consts  --      1.4009                 1.1992                 5.2593
 IR Inten    --      0.3532                10.4272               202.9165

                    112                    113                    114
                      A                      A                      A
 Frequencies --   1343.5207              1345.0419              1357.7151
 Red. masses --      1.3138                 1.1790                 1.2503
 Frc consts  --      1.3972                 1.2568                 1.3579
 IR Inten    --     17.7456                 5.8428                 2.7397

                    115                    116                    117
                      A                      A                      A
 Frequencies --   1367.0716              1376.4881              1387.9793
 Red. masses --      1.4131                 7.0404                 1.3160
 Frc consts  --      1.5560                 7.8595                 1.4937
 IR Inten    --     16.0464                 0.8555                 2.6478

                    118                    119                    120
                      A                      A                      A
 Frequencies --   1395.3893              1408.8950              1414.1672
 Red. masses --      1.3484                 1.2808                 1.3094
 Frc consts  --      1.5469                 1.4979                 1.5429
 IR Inten    --     26.6792                11.9776                13.4281

                    121                    122                    123
                      A                      A                      A
 Frequencies --   1458.7271              1473.1154              1477.3505
 Red. masses --      3.4684                 3.7450                 1.1370
 Frc consts  --      4.3484                 4.7882                 1.4621
 IR Inten    --      5.5699                 1.5960                 4.1222

                    124                    125                    126
                      A                      A                      A
 Frequencies --   1479.3233              1480.5430              1486.2532
 Red. masses --      1.1257                 1.1498                 1.1424
 Frc consts  --      1.4515                 1.4850                 1.4868
 IR Inten    --      1.8278                 3.9928                 3.2703

                    127                    128                    129
                      A                      A                      A
 Frequencies --   1499.9038              1503.5863              1506.6990
 Red. masses --      1.1249                 1.0544                 1.0555
 Frc consts  --      1.4911                 1.4045                 1.4118
 IR Inten    --      6.2434                 1.1351                 0.3795

                    130                    131                    132
                      A                      A                      A
 Frequencies --   1508.1521              1511.0133              1526.0015
 Red. masses --      1.0590                 1.0647                 1.0485
 Frc consts  --      1.4192                 1.4323                 1.4386
 IR Inten    --      3.0619                 8.2861                 8.8718

                    133                    134                    135
                      A                      A                      A
 Frequencies --   1532.5960              1533.0050              1533.7845
 Red. masses --      1.0516                 1.0513                 1.0522
 Frc consts  --      1.4553                 1.4557                 1.4584
 IR Inten    --      5.0422                 9.5902                 7.3262

                    136                    137                    138
                      A                      A                      A
 Frequencies --   1612.3320              1635.6561              2973.6836
 Red. masses --      6.1124                 5.7615                 1.0819
 Frc consts  --      9.3621                 9.0818                 5.6368
 IR Inten    --     10.0295                14.2845                33.0228

                    139                    140                    141
                      A                      A                      A
 Frequencies --   2991.2011              2992.2428              2997.5267
 Red. masses --      1.0358                 1.0378                 1.0337
 Frc consts  --      5.4604                 5.4744                 5.4723
 IR Inten    --    123.4100                40.7744                78.0277

                    142                    143                    144
                      A                      A                      A
 Frequencies --   2999.9896              3010.2475              3015.1597
 Red. masses --      1.0326                 1.0832                 1.0762
 Frc consts  --      5.4754                 5.7830                 5.7644
 IR Inten    --     58.6029                22.7573                 6.9120

                    145                    146                    147
                      A                      A                      A
 Frequencies --   3025.6827              3034.5542              3049.9408
 Red. masses --      1.0696                 1.0844                 1.1060
 Frc consts  --      5.7690                 5.8836                 6.0616
 IR Inten    --     48.8284                81.3823                72.2889

                    148                    149                    150
                      A                      A                      A
 Frequencies --   3064.3253              3068.1852              3070.7871
 Red. masses --      1.1030                 1.1028                 1.0945
 Frc consts  --      6.1024                 6.1166                 6.0807
 IR Inten    --     52.7950                60.5745                56.7316

                    151                    152                    153
                      A                      A                      A
 Frequencies --   3103.8519              3115.0843              3117.4487
 Red. masses --      1.0995                 1.1024                 1.1026
 Frc consts  --      6.2407                 6.3025                 6.3137
 IR Inten    --     22.4321                56.3734                49.4055

                    154                    155                    156
                      A                      A                      A
 Frequencies --   3118.4056              3119.2166              3131.5522
 Red. masses --      1.0878                 1.1040                 1.0991
 Frc consts  --      6.2327                 6.3285                 6.3502
 IR Inten    --     13.1006                44.3250                34.4618

                    157                    158                    159
                      A                      A                      A
 Frequencies --   3207.5961              3207.8890              3219.3286
 Red. masses --      1.0919                 1.0912                 1.0915
 Frc consts  --      6.6192                 6.6157                 6.6653
 IR Inten    --      3.0885                 0.4044                 4.0894

 - Thermochemistry -
 -------------------
 Temperature   298.150 Kelvin.  Pressure   1.00000 Atm.
 Atom     1 has atomic number  6 and mass  12.00000

 Molecular mass:   512.09396 amu.
 Principal axes and moments of inertia in atomic units:
                           1         2         3
     Eigenvalues --  ******************************
           X            0.99995   0.00634   0.00721
           Y           -0.00763   0.98072   0.19525
           Z           -0.00583  -0.19529   0.98073
 This molecule is an asymmetric top.
 Rotational symmetry number  1.
 Warning -- assumption of classical behavior for rotation
           may cause significant error
 Rotational temperatures (Kelvin)      0.00718     0.00402     0.00396
 Rotational constants (GHZ):           0.14969     0.08375     0.08262
 Zero-point vibrational energy    1059527.2 (Joules/Mol)
                                  253.23309 (Kcal/Mol)
 Warning -- explicit consideration of  57 degrees of freedom as
           vibrations may cause significant error
 Vibrational temperatures:     23.62    25.80    30.82    37.70    47.94
          (Kelvin)             57.09    68.32    74.83    87.24    99.37
                              102.51   122.80   128.49   137.26   142.64
                              157.19   171.45   209.62   215.19   222.15
                              233.79   248.21   261.77   269.09   288.42
                              315.64   319.04   337.39   351.16   363.90
                              385.38   395.41   403.00   407.37   434.85
                              446.84   473.59   484.46   491.92   502.55
                              567.19   581.72   596.79   622.24   637.90
                              651.13   671.86   683.64   715.43   725.33
                              743.40   779.31   785.55   792.73   834.99
                              849.47   887.01   932.09   935.66   938.99
                              989.46   992.12  1014.61  1063.51  1146.38
                             1166.27  1198.39  1211.44  1281.73  1286.10
                             1328.59  1340.11  1342.37  1359.52  1396.81
                             1416.53  1436.52  1452.67  1511.27  1545.73
                             1561.42  1564.76  1568.13  1573.27  1591.01
                             1592.97  1601.37  1605.09  1608.12  1619.36
                             1619.48  1643.29  1657.45  1671.78  1677.42
                             1680.34  1681.49  1683.08  1690.07  1715.67
                             1729.65  1738.10  1751.96  1788.35  1804.01
                             1835.69  1840.41  1868.43  1880.67  1901.91
                             1924.90  1933.03  1935.22  1953.45  1966.91
                             1980.46  1996.99  2007.65  2027.09  2034.67
                             2098.78  2119.48  2125.58  2128.42  2130.17
                             2138.39  2158.03  2163.33  2167.80  2169.89
                             2174.01  2195.58  2205.06  2205.65  2206.77
                             2319.79  2353.34  4278.47  4303.67  4305.17
                             4312.77  4316.32  4331.07  4338.14  4353.28
                             4366.05  4388.18  4408.88  4414.43  4418.18
                             4465.75  4481.91  4485.31  4486.69  4487.86
                             4505.61  4615.02  4615.44  4631.90

 Zero-point correction=                           0.403553 (Hartree/Particle)
 Thermal correction to Energy=                    0.438071
 Thermal correction to Enthalpy=                  0.439015
 Thermal correction to Gibbs Free Energy=         0.333130
 Sum of electronic and zero-point Energies=          -2298.029545
 Sum of electronic and thermal Energies=             -2297.995027
 Sum of electronic and thermal Enthalpies=           -2297.994083
 Sum of electronic and thermal Free Energies=        -2298.099968

                     E (Thermal)             CV                S
                      KCal/Mol        Cal/Mol-Kelvin    Cal/Mol-Kelvin
 Total                  274.893            124.114            222.854
 Electronic               0.000              0.000              0.000
 Translational            0.889              2.981             44.587
 Rotational               0.889              2.981             36.982
 Vibrational            273.116            118.152            141.286
 Vibration     1          0.593              1.986              7.026
 Vibration     2          0.593              1.986              6.851
 Vibration     3          0.593              1.985              6.498
 Vibration     4          0.593              1.985              6.098
 Vibration     5          0.594              1.983              5.621
 Vibration     6          0.594              1.981              5.275
 Vibration     7          0.595              1.979              4.919
 Vibration     8          0.596              1.977              4.739
 Vibration     9          0.597              1.973              4.436
 Vibration    10          0.598              1.969              4.180
 Vibration    11          0.598              1.968              4.119
 Vibration    12          0.601              1.959              3.764
 Vibration    13          0.602              1.957              3.675
 Vibration    14          0.603              1.952              3.546
 Vibration    15          0.604              1.950              3.471
 Vibration    16          0.606              1.942              3.282
 Vibration    17          0.609              1.933              3.114
 Vibration    18          0.617              1.907              2.728
 Vibration    19          0.618              1.903              2.678
 Vibration    20          0.620              1.898              2.617
 Vibration    21          0.623              1.888              2.521
 Vibration    22          0.626              1.876              2.408
 Vibration    23          0.630              1.864              2.308
 Vibration    24          0.632              1.858              2.257
 Vibration    25          0.638              1.839              2.129
 Vibration    26          0.647              1.812              1.964
 Vibration    27          0.648              1.808              1.945
 Vibration    28          0.654              1.788              1.844
 Vibration    29          0.659              1.773              1.773
 Vibration    30          0.664              1.758              1.710
 Vibration    31          0.673              1.732              1.610
 Vibration    32          0.677              1.720              1.566
 Vibration    33          0.680              1.710              1.533
 Vibration    34          0.682              1.705              1.515
 Vibration    35          0.694              1.669              1.405
 Vibration    36          0.699              1.654              1.359
 Vibration    37          0.712              1.617              1.264
 Vibration    38          0.717              1.602              1.228
 Vibration    39          0.721              1.592              1.203
 Vibration    40          0.727              1.577              1.169
 Vibration    41          0.761              1.483              0.984
 Vibration    42          0.770              1.461              0.947
 Vibration    43          0.778              1.438              0.910
 Vibration    44          0.793              1.399              0.851
 Vibration    45          0.803              1.376              0.816
 Vibration    46          0.811              1.355              0.788
 Vibration    47          0.824              1.323              0.746
 Vibration    48          0.832              1.305              0.723
 Vibration    49          0.853              1.256              0.665
 Vibration    50          0.859              1.241              0.648
 Vibration    51          0.872              1.213              0.618
 Vibration    52          0.897              1.158              0.562
 Vibration    53          0.901              1.148              0.553
 Vibration    54          0.906              1.138              0.542
 Vibration    55          0.937              1.074              0.485
 Vibration    56          0.948              1.052              0.466
 Vibration    57          0.976              0.997              0.422

                           ! Non-Optimized Parameters !

 1\1\GINC-NODE086\Freq\RTPSSTPSS\Gen\C18H22F6O8S1\EKWAN\15-Jun-2019\0\\
 #P Geom=AllCheck Guess=TCheck SCRF=Check GenChk RTPSSTPSS/ChkBas Freq\
 \title\\0,1\C,3.3902796202,0.4037562677,0.5911254528\C,3.3319114137,-0
 .5183814307,-0.6349893223\C,1.8735188927,-0.8750129266,-0.9903916944\C
 ,1.0156082917,1.1181707873,0.039943382\C,2.4289353191,1.5838803037,0.4
 128000603\H,1.7866709983,-1.4394612996,-1.9214356771\H,3.7333905927,0.
 0321360898,-1.5038450747\H,3.1016384844,-0.1599831729,1.491720283\H,0.
 584788627,0.551138813,0.8788463751\H,2.8050586024,2.2391485589,-0.3857

 Normal termination of Gaussian 16 at Sat Jun 15 11:25:44 2019.
