 Gaussian 16, Revision A.03,
 Gaussian 16:  AS64L-G16RevA.03 25-Dec-2016

 ----------------------------------------------------------------------
 #p opt freq=noraman 6-31g(d) scrf=(solvent=tetrahydrofuran,pcm) pop=no
 ne b97d3 empiricaldispersion=gd3bj extrabasis
 ----------------------------------------------------------------------

 -----
 title
 -----
 Symbolic Z-matrix:
 Charge =  0 Multiplicity = 1

 SCF Done:  E(RB97D3) =  -2297.03079497     A.U. after   15 cycles
 SCF Done:  E(RB97D3) =  -2297.03079445     A.U. after    6 cycles
 SCF Done:  E(RB97D3) =  -2297.03079406     A.U. after    8 cycles
 SCF Done:  E(RB97D3) =  -2297.03079443     A.U. after    7 cycles
 Optimization completed.
    -- Stationary point found.
 Normal termination of Gaussian 16 at Sat Jun 15 07:15:11 2019.

 ------------------------------------------------------------------
 #P Geom=AllCheck Guess=TCheck SCRF=Check GenChk RB97D3/ChkBas Freq
 ------------------------------------------------------------------

 Structure from the checkpoint file:  "/scratch/users/ekwan/clay_new-glu_gluC6-bisCF3-sm-b97d3_d3bj-custom-pcm_thf/Gau-23053.chk"
 -----
 title
 -----
 Charge =  0 Multiplicity = 1

                         Standard orientation:
 ---------------------------------------------------------------------
 Center     Atomic      Atomic             Coordinates (Angstroms)
 Number     Number       Type             X           Y           Z
 ---------------------------------------------------------------------
      1          6           0       -3.402789   -0.515262    0.455651
      2          6           0       -3.321762    0.635791   -0.558714
      3          6           0       -1.856718    1.056804   -0.810598
      4          6           0       -1.010650   -1.102193   -0.182755
      5          6           0       -2.427537   -1.636038    0.073543
      6          1           0       -1.767868    1.780177   -1.626432
      7          1           0       -3.692301    0.259538   -1.531173
      8          1           0       -3.131988   -0.141227    1.456355
      9          1           0       -0.594699   -0.719845    0.763284
     10          1           0       -2.789449   -2.119922   -0.845974
     11          8           0       -1.033977   -0.013376   -1.149347
     12          8           0       -1.412605    1.716245    0.432979
     13          8           0       -4.133440    1.702389   -0.103073
     14          8           0       -4.714268   -1.076247    0.469907
     15          8           0       -2.335195   -2.580838    1.139643
     16          6           0       -0.058510   -2.182233   -0.705105
     17          1           0        0.144556   -2.863929    0.130185
     18          1           0        0.888204   -1.708518   -1.011819
     19          8           0       -0.576224   -2.995326   -1.750702
     20         16           0       -0.096457    2.712228    0.348084
     21          8           0       -0.097661    3.408182    1.642146
     22          8           0       -0.129579    3.456883   -0.923695
     23          6           0        1.282742    1.560176    0.306786
     24          6           0        1.695057    0.966743    1.502783
     25          6           0        1.869004    1.250049   -0.923375
     26          6           0        2.737035    0.030658    1.457302
     27          1           0        1.214407    1.224173    2.443319
     28          6           0        2.912792    0.319090   -0.944838
     29          1           0        1.515969    1.719742   -1.836527
     30          6           0        3.347540   -0.293050    0.239554
     31          1           0        4.153663   -1.022211    0.211640
     32          6           0       -4.441188    2.674954   -1.106064
     33          1           0       -3.560833    3.279504   -1.379430
     34          1           0       -4.846694    2.194712   -2.013207
     35          1           0       -5.201574    3.334030   -0.671849
     36          6           0       -5.538504   -0.612539    1.541456
     37          1           0       -6.491570   -1.148728    1.449385
     38          1           0       -5.086163   -0.848058    2.520791
     39          1           0       -5.716987    0.470706    1.475959
     40          6           0       -2.953659   -3.837147    0.848103
     41          1           0       -2.799646   -4.468926    1.732083
     42          1           0       -4.032518   -3.715965    0.666464
     43          1           0       -2.485132   -4.315280   -0.028163
     44          6           0       -0.569680   -2.371914   -3.038288
     45          1           0       -0.787476   -3.163923   -3.766005
     46          1           0        0.418349   -1.933986   -3.260227
     47          1           0       -1.331281   -1.581575   -3.119287
     48          6           0        3.242762   -0.590579    2.742563
     49          9           0        2.259092   -0.683964    3.673761
     50          9           0        4.244142    0.154505    3.283964
     51          9           0        3.735688   -1.838846    2.534035
     52          6           0        3.528111   -0.105136   -2.260529
     53          9           0        3.028348   -1.312623   -2.661050
     54          9           0        4.873839   -0.251133   -2.157571
     55          9           0        3.279300    0.783336   -3.252741
 ---------------------------------------------------------------------

 SCF Done:  E(RB97D3) =  -2297.03079443     A.U. after    1 cycles

 Isotropic polarizability for W=    0.000000      298.07 Bohr**3.
 End of Minotr F.D. properties file   721 does not exist.

                      1                      2                      3
                      A                      A                      A
 Frequencies --      8.5295                13.9110                18.3595
 Red. masses --      8.5395                 8.1740                15.1290
 Frc consts  --      0.0004                 0.0009                 0.0030
 IR Inten    --      0.3461                 0.1684                 0.0008

                      4                      5                      6
                      A                      A                      A
 Frequencies --     23.7423                36.3085                43.7043
 Red. masses --     13.4501                 5.3812                 5.2329
 Frc consts  --      0.0045                 0.0042                 0.0059
 IR Inten    --      0.0153                 0.3725                 0.3097

                      7                      8                      9
                      A                      A                      A
 Frequencies --     50.4467                57.2794                64.6140
 Red. masses --      4.3424                 3.3559                 3.2162
 Frc consts  --      0.0065                 0.0065                 0.0079
 IR Inten    --      0.8594                 1.5703                 1.9662

                     10                     11                     12
                      A                      A                      A
 Frequencies --     68.7320                71.8560                78.6947
 Red. masses --      3.5132                 2.8526                 3.5882
 Frc consts  --      0.0098                 0.0087                 0.0131
 IR Inten    --      3.0235                 4.5034                 3.3674

                     13                     14                     15
                      A                      A                      A
 Frequencies --     89.3335                97.7387               103.1106
 Red. masses --      3.4184                 9.2933                11.1601
 Frc consts  --      0.0161                 0.0523                 0.0699
 IR Inten    --      3.3895                 3.9173                 3.3769

                     16                     17                     18
                      A                      A                      A
 Frequencies --    112.4147               120.3987               146.9314
 Red. masses --      8.9192                 2.4225                 7.4059
 Frc consts  --      0.0664                 0.0207                 0.0942
 IR Inten    --      0.2628                 3.7435                 0.3907

                     19                     20                     21
                      A                      A                      A
 Frequencies --    153.2862               157.5575               165.9785
 Red. masses --      5.0914                 1.5514                 2.0523
 Frc consts  --      0.0705                 0.0227                 0.0333
 IR Inten    --      1.7296                 0.0553                 1.0460

                     22                     23                     24
                      A                      A                      A
 Frequencies --    177.2353               186.5562               192.6617
 Red. masses --      1.7955                 3.1760                 1.5479
 Frc consts  --      0.0332                 0.0651                 0.0339
 IR Inten    --      0.5550                 7.6793                 1.7435

                     25                     26                     27
                      A                      A                      A
 Frequencies --    201.7952               222.8651               231.8715
 Red. masses --      1.6926                 2.1483                 9.9571
 Frc consts  --      0.0406                 0.0629                 0.3154
 IR Inten    --      1.0098                 7.8836                 0.8003

                     28                     29                     30
                      A                      A                      A
 Frequencies --    239.8598               250.4700               260.8855
 Red. masses --      6.4927                 3.9974                 3.5279
 Frc consts  --      0.2201                 0.1478                 0.1415
 IR Inten    --      2.7749                10.6035                10.1429

                     31                     32                     33
                      A                      A                      A
 Frequencies --    272.2349               280.5751               286.2704
 Red. masses --     11.0576                 5.9863                 5.7736
 Frc consts  --      0.4828                 0.2777                 0.2788
 IR Inten    --      4.4352                17.4386                 4.7187

                     34                     35                     36
                      A                      A                      A
 Frequencies --    286.9388               303.7318               316.4301
 Red. masses --      9.4387                 5.6240                 4.1986
 Frc consts  --      0.4579                 0.3057                 0.2477
 IR Inten    --      3.4908                 0.1573                 4.0583

                     37                     38                     39
                      A                      A                      A
 Frequencies --    333.5495               342.4851               350.0170
 Red. masses --      7.8988                 7.6654                 4.0025
 Frc consts  --      0.5178                 0.5298                 0.2889
 IR Inten    --      0.7302                 9.8670                 4.2625

                     40                     41                     42
                      A                      A                      A
 Frequencies --    353.2267               398.5910               410.3692
 Red. masses --      9.4079                10.4684                 9.1600
 Frc consts  --      0.6916                 0.9799                 0.9089
 IR Inten    --     21.4105                16.4561                 8.2090

                     43                     44                     45
                      A                      A                      A
 Frequencies --    424.1980               438.0327               448.9567
 Red. masses --      2.2315                 6.1021                 9.1365
 Frc consts  --      0.2366                 0.6898                 1.0850
 IR Inten    --      7.8270                11.9748                31.8490

                     46                     47                     48
                      A                      A                      A
 Frequencies --    460.3223               472.0752               480.9087
 Red. masses --      4.1729                 7.3770                12.0622
 Frc consts  --      0.5210                 0.9686                 1.6436
 IR Inten    --      5.8728                 9.9878                 0.9880

                     49                     50                     51
                      A                      A                      A
 Frequencies --    505.0903               511.0730               527.5482
 Red. masses --      8.7498                 6.8071                 4.4372
 Frc consts  --      1.3152                 1.0476                 0.7276
 IR Inten    --     53.3489                 2.4108                52.8394

                     52                     53                     54
                      A                      A                      A
 Frequencies --    547.6348               555.5693               560.6252
 Red. masses --     10.5145                 7.7886                 4.3315
 Frc consts  --      1.8579                 1.4164                 0.8021
 IR Inten    --     54.2229               140.0373                47.8872

                     55                     56                     57
                      A                      A                      A
 Frequencies --    583.7830               593.4349               622.6164
 Red. masses --      6.5214                 8.2402                 5.7812
 Frc consts  --      1.3095                 1.7098                 1.3204
 IR Inten    --     29.5087                 2.9143                 7.5746

                     58                     59                     60
                      A                      A                      A
 Frequencies --    648.5683               650.3644               660.1469
 Red. masses --      7.6282                 7.7965                13.1609
 Frc consts  --      1.8905                 1.9430                 3.3792
 IR Inten    --    117.5686                11.0658                48.7225

                     61                     62                     63
                      A                      A                      A
 Frequencies --    685.6430               692.7392               707.3153
 Red. masses --      2.6582                11.8304                 5.6865
 Frc consts  --      0.7363                 3.3450                 1.6762
 IR Inten    --     15.6714                 1.7823               293.4594

                     64                     65                     66
                      A                      A                      A
 Frequencies --    736.4084               795.2117               808.4573
 Red. masses --      7.2125                 4.6894                 6.7781
 Frc consts  --      2.3045                 1.7472                 2.6102
 IR Inten    --    322.5583                22.4047                25.0626

                     67                     68                     69
                      A                      A                      A
 Frequencies --    830.4399               842.4326               877.6952
 Red. masses --     11.8363                 4.3033                 1.5481
 Frc consts  --      4.8093                 1.7994                 0.7027
 IR Inten    --     35.9090                39.7551                63.3064

                     70                     71                     72
                      A                      A                      A
 Frequencies --    892.3674               907.1884               913.4929
 Red. masses --      3.2839                 1.3865                 1.3595
 Frc consts  --      1.5407                 0.6723                 0.6684
 IR Inten    --     41.2586                 0.5762                 3.4667

                     73                     74                     75
                      A                      A                      A
 Frequencies --    930.6663               944.4831               969.9189
 Red. masses --      5.1757                 4.4344                 4.1154
 Frc consts  --      2.6412                 2.3306                 2.2810
 IR Inten    --     10.9457                28.5626                49.9829

                     76                     77                     78
                      A                      A                      A
 Frequencies --    984.4922               997.1626              1011.2510
 Red. masses --      4.6921                 6.4121                 3.6043
 Frc consts  --      2.6794                 3.7565                 2.1716
 IR Inten    --     21.1524                 2.6790               135.2748

                     79                     80                     81
                      A                      A                      A
 Frequencies --   1049.6953              1072.1018              1084.9932
 Red. masses --      3.2607                11.6752                 5.3779
 Frc consts  --      2.1168                 7.9065                 3.7301
 IR Inten    --     20.7991                52.2774               102.6816

                     82                     83                     84
                      A                      A                      A
 Frequencies --   1085.2085              1090.6372              1093.2505
 Red. masses --      5.8942                 5.3896                 4.1882
 Frc consts  --      4.0898                 3.7772                 2.9493
 IR Inten    --    448.0112               348.6886                64.4394

                     85                     86                     87
                      A                      A                      A
 Frequencies --   1101.9056              1105.5711              1110.6185
 Red. masses --      6.6063                 3.9875                 2.7640
 Frc consts  --      4.7260                 2.8716                 2.0087
 IR Inten    --    270.0388                54.1361               180.8707

                     88                     89                     90
                      A                      A                      A
 Frequencies --   1113.0836              1115.6451              1119.2596
 Red. masses --      3.3199                 3.6786                10.3252
 Frc consts  --      2.4234                 2.6976                 7.6210
 IR Inten    --    486.1464               101.2072               324.1523

                     91                     92                     93
                      A                      A                      A
 Frequencies --   1126.5053              1139.7459              1149.0702
 Red. masses --      4.1164                 4.5615                 2.8383
 Frc consts  --      3.0777                 3.4912                 2.2080
 IR Inten    --     19.6675               157.2863                82.5882

                     94                     95                     96
                      A                      A                      A
 Frequencies --   1156.9287              1158.7587              1162.0459
 Red. masses --      5.3269                 1.3050                 1.2847
 Frc consts  --      4.2008                 1.0324                 1.0222
 IR Inten    --    167.1782                 5.9224                 3.8421

                     97                     98                     99
                      A                      A                      A
 Frequencies --   1164.4395              1165.4525              1168.0418
 Red. masses --      1.2673                 3.4372                 1.3055
 Frc consts  --      1.0125                 2.7507                 1.0494
 IR Inten    --      0.3251               184.8758                 1.8547

                    100                    101                    102
                      A                      A                      A
 Frequencies --   1190.3643              1196.0841              1202.0079
 Red. masses --      1.3268                 1.4046                 1.5057
 Frc consts  --      1.1077                 1.1839                 1.2817
 IR Inten    --     20.1567                18.4255                 9.2481

                    103                    104                    105
                      A                      A                      A
 Frequencies --   1211.8698              1239.9524              1244.3043
 Red. masses --      1.5759                 1.6774                 3.2493
 Frc consts  --      1.3636                 1.5195                 2.9641
 IR Inten    --     11.6078                10.6264               814.3789

                    106                    107                    108
                      A                      A                      A
 Frequencies --   1266.3896              1280.4073              1296.2479
 Red. masses --     12.9493                 1.4160                 1.2869
 Frc consts  --     12.2358                 1.3678                 1.2740
 IR Inten    --    233.1303                 1.4811                15.8907

                    109                    110                    111
                      A                      A                      A
 Frequencies --   1306.2750              1320.0652              1327.1901
 Red. masses --      1.3625                 1.1967                 5.4203
 Frc consts  --      1.3697                 1.2286                 5.6252
 IR Inten    --      0.8692                20.3368               188.2016

                    112                    113                    114
                      A                      A                      A
 Frequencies --   1342.6891              1346.6949              1357.5227
 Red. masses --      1.1992                 1.1885                 1.2167
 Frc consts  --      1.2738                 1.2700                 1.3211
 IR Inten    --     16.5739                11.0727                 3.6383

                    115                    116                    117
                      A                      A                      A
 Frequencies --   1365.4310              1371.7202              1385.2703
 Red. masses --      1.4315                 6.0874                 1.2712
 Frc consts  --      1.5725                 6.7486                 1.4373
 IR Inten    --      9.6954                 1.1949                 7.4053

                    118                    119                    120
                      A                      A                      A
 Frequencies --   1389.6145              1402.4117              1409.9733
 Red. masses --      1.3682                 1.2962                 1.2717
 Frc consts  --      1.5567                 1.5020                 1.4895
 IR Inten    --     19.8897                16.5227                15.4834

                    121                    122                    123
                      A                      A                      A
 Frequencies --   1449.5373              1461.4857              1465.2985
 Red. masses --      3.3927                 1.0968                 3.5652
 Frc consts  --      4.2001                 1.3803                 4.5102
 IR Inten    --      7.5649                 2.5871                 2.3717

                    124                    125                    126
                      A                      A                      A
 Frequencies --   1466.0926              1467.8143              1469.7139
 Red. masses --      1.1635                 1.1458                 1.1372
 Frc consts  --      1.4735                 1.4545                 1.4473
 IR Inten    --      1.3050                 1.8360                 3.8405

                    127                    128                    129
                      A                      A                      A
 Frequencies --   1478.5183              1480.7776              1481.9354
 Red. masses --      1.0517                 1.0703                 1.0539
 Frc consts  --      1.3545                 1.3827                 1.3636
 IR Inten    --      1.7453                12.7113                 0.7348

                    130                    131                    132
                      A                      A                      A
 Frequencies --   1485.6160              1486.6440              1500.5889
 Red. masses --      1.1080                 1.0855                 1.0482
 Frc consts  --      1.4408                 1.4135                 1.3907
 IR Inten    --      0.9179                 6.7559                10.4620

                    133                    134                    135
                      A                      A                      A
 Frequencies --   1506.3696              1506.9615              1509.1984
 Red. masses --      1.0501                 1.0574                 1.0520
 Frc consts  --      1.4039                 1.4149                 1.4117
 IR Inten    --      9.3732                 7.3125                 6.7385

                    136                    137                    138
                      A                      A                      A
 Frequencies --   1603.7526              1626.4624              2942.2572
 Red. masses --      6.0253                 5.7345                 1.0811
 Frc consts  --      9.1307                 8.9379                 5.5141
 IR Inten    --      8.3526                12.8831                39.1998

                    139                    140                    141
                      A                      A                      A
 Frequencies --   2958.3110              2959.3664              2967.6481
 Red. masses --      1.0375                 1.0371                 1.0327
 Frc consts  --      5.3496                 5.3512                 5.3584
 IR Inten    --    137.8675                39.1770                89.5965

                    142                    143                    144
                      A                      A                      A
 Frequencies --   2968.5382              2992.0340              2993.1724
 Red. masses --      1.0331                 1.0733                 1.0830
 Frc consts  --      5.3638                 5.6614                 5.7166
 IR Inten    --     63.8854                10.3326                20.1416

                    145                    146                    147
                      A                      A                      A
 Frequencies --   3002.0205              3018.0292              3018.7503
 Red. masses --      1.0724                 1.0860                 1.1043
 Frc consts  --      5.6942                 5.8283                 5.9291
 IR Inten    --     60.1241                95.0651                48.7758

                    148                    149                    150
                      A                      A                      A
 Frequencies --   3035.1579              3036.9707              3037.4558
 Red. masses --      1.1029                 1.1013                 1.0985
 Frc consts  --      5.9860                 5.9849                 5.9715
 IR Inten    --     52.9776               100.0681                26.8072

                    151                    152                    153
                      A                      A                      A
 Frequencies --   3077.1760              3084.0246              3086.3916
 Red. masses --      1.0997                 1.1029                 1.1026
 Frc consts  --      6.1352                 6.1803                 6.1881
 IR Inten    --     22.9918                56.4482                49.3671

                    154                    155                    156
                      A                      A                      A
 Frequencies --   3086.8623              3093.0196              3099.4656
 Red. masses --      1.1036                 1.0880                 1.0990
 Frc consts  --      6.1957                 6.1326                 6.2205
 IR Inten    --     47.7976                20.7154                34.7815

                    157                    158                    159
                      A                      A                      A
 Frequencies --   3188.8454              3191.9367              3205.2469
 Red. masses --      1.0914                 1.0915                 1.0914
 Frc consts  --      6.5391                 6.5524                 6.6065
 IR Inten    --      0.0304                 3.0077                 4.3633

 - Thermochemistry -
 -------------------
 Temperature   298.150 Kelvin.  Pressure   1.00000 Atm.
 Atom     1 has atomic number  6 and mass  12.00000

 Molecular mass:   512.09396 amu.
 Principal axes and moments of inertia in atomic units:
                           1         2         3
     Eigenvalues --  ******************************
           X            0.99995   0.00924  -0.00316
           Y           -0.00914   0.99947   0.03115
           Z            0.00345  -0.03112   0.99951
 This molecule is an asymmetric top.
 Rotational symmetry number  1.
 Warning -- assumption of classical behavior for rotation
           may cause significant error
 Rotational temperatures (Kelvin)      0.00715     0.00404     0.00398
 Rotational constants (GHZ):           0.14900     0.08411     0.08284
 Zero-point vibrational energy    1054357.2 (Joules/Mol)
                                  251.99741 (Kcal/Mol)
 Warning -- explicit consideration of  56 degrees of freedom as
           vibrations may cause significant error
 Vibrational temperatures:     12.27    20.01    26.42    34.16    52.24
          (Kelvin)             62.88    72.58    82.41    92.97    98.89
                              103.38   113.22   128.53   140.62   148.35
                              161.74   173.23   211.40   220.54   226.69
                              238.81   255.00   268.41   277.20   290.34
                              320.65   333.61   345.10   360.37   375.36
                              391.69   403.69   411.88   412.84   437.00
                              455.27   479.90   492.76   503.60   508.21
                              573.48   590.43   610.33   630.23   645.95
                              662.30   679.21   691.92   726.71   735.32
                              759.02   787.92   799.34   806.61   839.93
                              853.82   895.81   933.15   935.73   949.80
                              986.49   996.70  1017.67  1059.53  1144.13
                             1163.19  1194.82  1212.07  1262.81  1283.92
                             1305.24  1314.31  1339.02  1358.90  1395.50
                             1416.46  1434.69  1454.96  1510.28  1542.52
                             1561.06  1561.37  1569.18  1572.94  1585.40
                             1590.67  1597.93  1601.48  1605.16  1610.36
                             1620.79  1639.84  1653.26  1664.56  1667.20
                             1671.92  1675.37  1676.83  1680.55  1712.67
                             1720.90  1729.42  1743.61  1784.01  1790.28
                             1822.05  1842.22  1865.01  1879.44  1899.28
                             1909.53  1931.83  1937.59  1953.17  1964.55
                             1973.60  1993.09  1999.35  2017.76  2028.64
                             2085.56  2102.75  2108.24  2109.38  2111.86
                             2114.59  2127.26  2130.51  2132.17  2137.47
                             2138.95  2159.01  2167.33  2168.18  2171.40
                             2307.44  2340.12  4233.25  4256.35  4257.87
                             4269.78  4271.06  4304.87  4306.51  4319.24
                             4342.27  4343.31  4366.92  4369.52  4370.22
                             4427.37  4437.22  4440.63  4441.31  4450.17
                             4459.44  4588.04  4592.48  4611.64

 Zero-point correction=                           0.401583 (Hartree/Particle)
 Thermal correction to Energy=                    0.435876
 Thermal correction to Enthalpy=                  0.436820
 Thermal correction to Gibbs Free Energy=         0.330742
 Sum of electronic and zero-point Energies=          -2296.629211
 Sum of electronic and thermal Energies=             -2296.594919
 Sum of electronic and thermal Enthalpies=           -2296.593975
 Sum of electronic and thermal Free Energies=        -2296.700052

                     E (Thermal)             CV                S
                      KCal/Mol        Cal/Mol-Kelvin    Cal/Mol-Kelvin
 Total                  273.516            123.904            223.260
 Electronic               0.000              0.000              0.000
 Translational            0.889              2.981             44.587
 Rotational               0.889              2.981             36.980
 Vibrational            271.739            117.942            141.693
 Vibration     1          0.593              1.987              8.327
 Vibration     2          0.593              1.986              7.355
 Vibration     3          0.593              1.986              6.804
 Vibration     4          0.593              1.985              6.294
 Vibration     5          0.594              1.982              5.451
 Vibration     6          0.595              1.980              5.084
 Vibration     7          0.595              1.977              4.800
 Vibration     8          0.596              1.975              4.549
 Vibration     9          0.597              1.971              4.311
 Vibration    10          0.598              1.969              4.189
 Vibration    11          0.598              1.967              4.102
 Vibration    12          0.600              1.963              3.923
 Vibration    13          0.602              1.957              3.675
 Vibration    14          0.603              1.951              3.499
 Vibration    15          0.605              1.947              3.395
 Vibration    16          0.607              1.939              3.227
 Vibration    17          0.609              1.932              3.094
 Vibration    18          0.617              1.906              2.712
 Vibration    19          0.619              1.899              2.631
 Vibration    20          0.621              1.894              2.579
 Vibration    21          0.624              1.884              2.481
 Vibration    22          0.628              1.870              2.357
 Vibration    23          0.632              1.858              2.262
 Vibration    24          0.635              1.850              2.202
 Vibration    25          0.639              1.837              2.117
 Vibration    26          0.649              1.806              1.936
 Vibration    27          0.653              1.792              1.864
 Vibration    28          0.657              1.779              1.804
 Vibration    29          0.663              1.762              1.727
 Vibration    30          0.669              1.744              1.656
 Vibration    31          0.675              1.724              1.582
 Vibration    32          0.680              1.710              1.530
 Vibration    33          0.684              1.699              1.496
 Vibration    34          0.684              1.698              1.492
 Vibration    35          0.695              1.667              1.396
 Vibration    36          0.703              1.642              1.328
 Vibration    37          0.715              1.609              1.243
 Vibration    38          0.722              1.591              1.201
 Vibration    39          0.727              1.575              1.166
 Vibration    40          0.729              1.569              1.152
 Vibration    41          0.765              1.473              0.968
 Vibration    42          0.775              1.448              0.925
 Vibration    43          0.786              1.418              0.878
 Vibration    44          0.798              1.387              0.833
 Vibration    45          0.808              1.363              0.799
 Vibration    46          0.818              1.338              0.765
 Vibration    47          0.829              1.312              0.732
 Vibration    48          0.837              1.292              0.708
 Vibration    49          0.860              1.239              0.646
 Vibration    50          0.866              1.225              0.631
 Vibration    51          0.883              1.189              0.593
 Vibration    52          0.903              1.145              0.549
 Vibration    53          0.911              1.128              0.533
 Vibration    54          0.916              1.116              0.523
 Vibration    55          0.941              1.066              0.478
 Vibration    56          0.951              1.046              0.461

                           ! Non-Optimized Parameters !
 Normal termination of Gaussian 16 at Sat Jun 15 07:52:49 2019.
