 Gaussian 16, Revision A.03,
 Gaussian 16:  AS64L-G16RevA.03 25-Dec-2016

 ----------------------------------------------------------------------
 #p opt freq=noraman pop=none 6-31g* scrf=(pcm,solvent=tetrahydrofuran)
  m06l empiricaldispersion=gd3 extrabasis
 ----------------------------------------------------------------------

 -----
 title
 -----
 Symbolic Z-matrix:
 Charge =  0 Multiplicity = 1

 SCF Done:  E(RM06L) =  -2297.87040013     A.U. after   14 cycles
 SCF Done:  E(RM06L) =  -2297.87039623     A.U. after    9 cycles
 SCF Done:  E(RM06L) =  -2297.87040903     A.U. after    8 cycles
 SCF Done:  E(RM06L) =  -2297.87041062     A.U. after    8 cycles
 SCF Done:  E(RM06L) =  -2297.87040528     A.U. after    7 cycles
 SCF Done:  E(RM06L) =  -2297.87039943     A.U. after    7 cycles
 SCF Done:  E(RM06L) =  -2297.87040571     A.U. after    7 cycles
 Optimization completed.
    -- Stationary point found.
 Normal termination of Gaussian 16 at Sat Jun 15 09:12:11 2019.

 -----------------------------------------------------------------
 #P Geom=AllCheck Guess=TCheck SCRF=Check GenChk RM06L/ChkBas Freq
 -----------------------------------------------------------------

 Structure from the checkpoint file:  "/scratch/users/ekwan/clay_new-glu_gluC6-bisCF3-sm-m06l_d3-custom-pcm_thf/Gau-17222.chk"
 -----
 title
 -----
 Charge =  0 Multiplicity = 1

                         Standard orientation:
 ---------------------------------------------------------------------
 Center     Atomic      Atomic             Coordinates (Angstroms)
 Number     Number       Type             X           Y           Z
 ---------------------------------------------------------------------
      1          6           0        3.396216    0.395702    0.526059
      2          6           0        3.313137   -0.556628   -0.657372
      3          6           0        1.857998   -0.900716   -0.986628
      4          6           0        1.042476    1.107936    0.003808
      5          6           0        2.453501    1.573306    0.338746
      6          1           0        1.762377   -1.467095   -1.918698
      7          1           0        3.705688   -0.036692   -1.553245
      8          1           0        3.102203   -0.144257    1.441679
      9          1           0        0.632252    0.558615    0.869238
     10          1           0        2.823284    2.200794   -0.488858
     11          8           0        1.060248    0.221968   -1.137831
     12          8           0        1.390194   -1.747165    0.107089
     13          8           0        4.100862   -1.682683   -0.366777
     14          8           0        4.715291    0.896386    0.655783
     15          8           0        2.375183    2.328917    1.534648
     16          6           0        0.104085    2.259218   -0.305783
     17          1           0       -0.100036    2.783022    0.634304
     18          1           0       -0.846673    1.855642   -0.693105
     19          8           0        0.622022    3.231345   -1.185583
     20         16           0        0.081966   -2.682195   -0.169181
     21          8           0        0.065801   -3.598464    0.956088
     22          8           0        0.123508   -3.149153   -1.548061
     23          6           0       -1.276789   -1.546132    0.002509
     24          6           0       -1.719247   -1.220883    1.279298
     25          6           0       -1.840875   -0.985433   -1.139403
     26          6           0       -2.761886   -0.305420    1.410302
     27          1           0       -1.258274   -1.672088    2.154925
     28          6           0       -2.883403   -0.078871   -0.986712
     29          1           0       -1.469086   -1.252427   -2.124800
     30          6           0       -3.345500    0.264272    0.283402
     31          1           0       -4.157260    0.979162    0.392588
     32          6           0        4.268743   -2.555260   -1.468091
     33          1           0        3.346409   -3.108899   -1.702099
     34          1           0        4.592634   -2.006353   -2.365971
     35          1           0        5.042796   -3.272499   -1.186618
     36          6           0        5.415312    0.360586    1.760154
     37          1           0        6.410168    0.814590    1.752566
     38          1           0        4.915759    0.613074    2.709263
     39          1           0        5.515584   -0.731315    1.687973
     40          6           0        3.083995    3.552582    1.474782
     41          1           0        2.934758    4.048693    2.437811
     42          1           0        4.158018    3.388041    1.312660
     43          1           0        2.693285    4.198420    0.673230
     44          6           0        0.642573    2.824611   -2.541284
     45          1           0        0.776856    3.729454   -3.140853
     46          1           0       -0.305648    2.340187   -2.824150
     47          1           0        1.463290    2.125550   -2.755738
     48          6           0       -3.287399    0.021581    2.778403
     49          9           0       -2.305976    0.009916    3.699250
     50          9           0       -4.212166   -0.876313    3.174310
     51          9           0       -3.869841    1.233345    2.812070
     52          6           0       -3.477291    0.604172   -2.183655
     53          9           0       -3.013574    1.870896   -2.294447
     54          9           0       -4.816692    0.689543   -2.090828
     55          9           0       -3.180484   -0.030213   -3.329160
 ---------------------------------------------------------------------

 SCF Done:  E(RM06L) =  -2297.87040571     A.U. after    1 cycles

 Isotropic polarizability for W=    0.000000      287.00 Bohr**3.
 End of Minotr F.D. properties file   721 does not exist.

                      1                      2                      3
                      A                      A                      A
 Frequencies --     16.8160                19.0653                32.5197
 Red. masses --      9.3367                 6.0462                 3.0794
 Frc consts  --      0.0016                 0.0013                 0.0019
 IR Inten    --      0.1458                 0.4491                 4.0318

                      4                      5                      6
                      A                      A                      A
 Frequencies --     34.1207                36.7329                37.0971
 Red. masses --      8.0228                 6.7795                14.5525
 Frc consts  --      0.0055                 0.0054                 0.0118
 IR Inten    --      0.5013                 0.2461                 0.2964

                      7                      8                      9
                      A                      A                      A
 Frequencies --     44.8174                54.5197                65.0288
 Red. masses --      5.6388                 4.1790                 3.5393
 Frc consts  --      0.0067                 0.0073                 0.0088
 IR Inten    --      0.5408                 0.5452                 3.6078

                     10                     11                     12
                      A                      A                      A
 Frequencies --     69.9194                77.4632                86.7801
 Red. masses --      4.1778                 2.6933                 4.2970
 Frc consts  --      0.0120                 0.0095                 0.0191
 IR Inten    --      0.5141                 4.6187                 0.9112

                     13                     14                     15
                      A                      A                      A
 Frequencies --     99.7109                99.8386               109.9762
 Red. masses --      7.9401                12.0550                 4.8650
 Frc consts  --      0.0465                 0.0708                 0.0347
 IR Inten    --      3.5328                 3.9411                 0.9855

                     16                     17                     18
                      A                      A                      A
 Frequencies --    116.3046               134.0823               150.3584
 Red. masses --      6.2018                 2.3054                 7.2458
 Frc consts  --      0.0494                 0.0244                 0.0965
 IR Inten    --      0.5488                 4.1507                 0.4162

                     19                     20                     21
                      A                      A                      A
 Frequencies --    162.8815               168.0369               171.7274
 Red. masses --      1.4150                 1.5998                 4.9094
 Frc consts  --      0.0221                 0.0266                 0.0853
 IR Inten    --      0.3395                 0.7493                 2.6135

                     22                     23                     24
                      A                      A                      A
 Frequencies --    178.5357               196.8286               203.2988
 Red. masses --      2.4881                 2.5215                 4.2323
 Frc consts  --      0.0467                 0.0576                 0.1031
 IR Inten    --      0.6994                 1.6029                14.3789

                     25                     26                     27
                      A                      A                      A
 Frequencies --    222.3165               235.0191               242.4376
 Red. masses --      1.6579                10.2093                 1.7225
 Frc consts  --      0.0483                 0.3322                 0.0597
 IR Inten    --      0.5183                 0.5954                 1.7947

                     28                     29                     30
                      A                      A                      A
 Frequencies --    246.7280               254.4938               278.0997
 Red. masses --      3.0280                 7.5281                 2.7690
 Frc consts  --      0.1086                 0.2873                 0.1262
 IR Inten    --      5.4576                 5.4603                10.3485

                     31                     32                     33
                      A                      A                      A
 Frequencies --    282.2081               287.7311               291.7051
 Red. masses --     10.8632                 3.6053                 7.0384
 Frc consts  --      0.5097                 0.1759                 0.3529
 IR Inten    --      5.2666                 7.3498                14.2045

                     34                     35                     36
                      A                      A                      A
 Frequencies --    294.9583               309.6586               330.5818
 Red. masses --     11.1285                 5.4794                 4.0216
 Frc consts  --      0.5704                 0.3096                 0.2589
 IR Inten    --      2.7421                 0.5331                 2.9374

                     37                     38                     39
                      A                      A                      A
 Frequencies --    343.3012               355.5187               362.5400
 Red. masses --      8.0816                 7.3911                 4.1070
 Frc consts  --      0.5612                 0.5504                 0.3180
 IR Inten    --      0.7853                 8.2742                 3.8755

                     40                     41                     42
                      A                      A                      A
 Frequencies --    368.3120               411.0592               421.8075
 Red. masses --      8.1935                10.2517                 8.7747
 Frc consts  --      0.6549                 1.0206                 0.9198
 IR Inten    --     19.4494                16.6889                 9.4837

                     43                     44                     45
                      A                      A                      A
 Frequencies --    432.3090               454.3277               465.1820
 Red. masses --      2.1665                 5.9863                 9.1471
 Frc consts  --      0.2386                 0.7280                 1.1662
 IR Inten    --      8.2698                 8.3007                27.0457

                     46                     47                     48
                      A                      A                      A
 Frequencies --    478.5909               489.6502               493.9052
 Red. masses --      4.1977                 6.9987                11.9791
 Frc consts  --      0.5665                 0.9886                 1.7217
 IR Inten    --      7.7555                12.7755                 1.6279

                     49                     50                     51
                      A                      A                      A
 Frequencies --    520.8200               527.5238               546.2994
 Red. masses --      7.0148                 6.0557                 4.7563
 Frc consts  --      1.1211                 0.9929                 0.8363
 IR Inten    --     61.2154                11.3727                30.6858

                     52                     53                     54
                      A                      A                      A
 Frequencies --    564.9900               569.4646               577.4882
 Red. masses --     12.1338                 3.8393                 8.9030
 Frc consts  --      2.2821                 0.7336                 1.7493
 IR Inten    --     16.2125                44.6832               226.2807

                     55                     56                     57
                      A                      A                      A
 Frequencies --    604.6239               612.7658               646.4226
 Red. masses --      6.6552                 7.9802                 5.6673
 Frc consts  --      1.4335                 1.7654                 1.3953
 IR Inten    --     24.5037                 2.9910                10.8122

                     58                     59                     60
                      A                      A                      A
 Frequencies --    672.4977               675.9603               676.5985
 Red. masses --      7.6791                 6.9630                12.6918
 Frc consts  --      2.0462                 1.8745                 3.4232
 IR Inten    --      4.2648                91.9397                58.2014

                     61                     62                     63
                      A                      A                      A
 Frequencies --    708.7428               715.7513               738.5201
 Red. masses --      2.4373                12.3329                 4.7267
 Frc consts  --      0.7213                 3.7225                 1.5189
 IR Inten    --     22.8977                 0.4300               115.7078

                     64                     65                     66
                      A                      A                      A
 Frequencies --    786.7767               830.1239               844.5866
 Red. masses --      9.2392                 3.9693                 7.8671
 Frc consts  --      3.3697                 1.6116                 3.3064
 IR Inten    --    540.5950                31.4043                38.7531

                     67                     68                     69
                      A                      A                      A
 Frequencies --    861.6445               880.5327               898.6011
 Red. masses --     11.8173                 3.7912                 1.6443
 Frc consts  --      5.1692                 1.7319                 0.7823
 IR Inten    --     35.3547                41.7010                62.7940

                     70                     71                     72
                      A                      A                      A
 Frequencies --    924.9521               928.1166               938.4249
 Red. masses --      1.6337                 2.3169                 1.3767
 Frc consts  --      0.8235                 1.1759                 0.7143
 IR Inten    --     14.2726                28.8434                 9.5998

                     73                     74                     75
                      A                      A                      A
 Frequencies --    970.6383               986.5411              1014.4727
 Red. masses --      4.9629                 3.9765                 3.8863
 Frc consts  --      2.7549                 2.2802                 2.3565
 IR Inten    --     20.4750                23.9902                42.4898

                     76                     77                     78
                      A                      A                      A
 Frequencies --   1019.4351              1028.9099              1050.2959
 Red. masses --      5.9014                 3.9842                 3.5353
 Frc consts  --      3.6135                 2.4851                 2.2977
 IR Inten    --      6.2191                 8.7779               126.0317

                     79                     80                     81
                      A                      A                      A
 Frequencies --   1087.8286              1115.5587              1124.5162
 Red. masses --      2.8659                 7.4274                 3.2278
 Frc consts  --      1.9982                 5.4459                 2.4048
 IR Inten    --     19.6977                70.1461               142.7620

                     82                     83                     84
                      A                      A                      A
 Frequencies --   1127.9980              1136.3674              1137.8318
 Red. masses --      2.1306                 2.2702                 4.3269
 Frc consts  --      1.5972                 1.7272                 3.3005
 IR Inten    --    118.1163                74.5941               421.8144

                     85                     86                     87
                      A                      A                      A
 Frequencies --   1139.9862              1149.1369              1153.7062
 Red. masses --      3.4287                 7.9083                 3.7491
 Frc consts  --      2.6253                 6.1529                 2.9402
 IR Inten    --    101.1473               441.3432                80.2250

                     88                     89                     90
                      A                      A                      A
 Frequencies --   1160.2897              1161.0469              1166.9426
 Red. masses --      3.8990                 5.7465                 2.6534
 Frc consts  --      3.0927                 4.5641                 2.1289
 IR Inten    --    158.1053               327.0453                45.3582

                     91                     92                     93
                      A                      A                      A
 Frequencies --   1175.5062              1177.3947              1179.4574
 Red. masses --      1.8020                 2.2476                 1.3257
 Frc consts  --      1.4670                 1.8358                 1.0865
 IR Inten    --    128.4350               234.7426                31.0292

                     94                     95                     96
                      A                      A                      A
 Frequencies --   1182.3993              1183.4042              1188.7418
 Red. masses --      1.3529                 1.6799                 2.4474
 Frc consts  --      1.1144                 1.3861                 2.0377
 IR Inten    --      8.5263                72.6880               130.5329

                     97                     98                     99
                      A                      A                      A
 Frequencies --   1195.1092              1197.0336              1202.6677
 Red. masses --      3.1079                 6.0638                 5.7203
 Frc consts  --      2.6153                 5.1192                 4.8748
 IR Inten    --    213.7549               239.3641               183.3670

                    100                    101                    102
                      A                      A                      A
 Frequencies --   1210.2234              1216.9694              1226.0242
 Red. masses --      1.4124                 1.5200                 1.8149
 Frc consts  --      1.2188                 1.3263                 1.6073
 IR Inten    --     22.3141                27.4901                33.2711

                    103                    104                    105
                      A                      A                      A
 Frequencies --   1233.8904              1265.5945              1287.7761
 Red. masses --      1.6869                 1.8468                 2.3621
 Frc consts  --      1.5131                 1.7428                 2.3080
 IR Inten    --     15.5850                 5.9274               619.7992

                    106                    107                    108
                      A                      A                      A
 Frequencies --   1303.1027              1307.2873              1332.0914
 Red. masses --      1.4588                 1.5116                 1.2242
 Frc consts  --      1.4595                 1.5220                 1.2798
 IR Inten    --      3.3435               190.7738                 7.5770

                    109                    110                    111
                      A                      A                      A
 Frequencies --   1340.5302              1360.5271              1362.9993
 Red. masses --      1.3992                 1.2508                 1.2483
 Frc consts  --      1.4814                 1.3641                 1.3663
 IR Inten    --     10.3676                48.8813                18.2652

                    112                    113                    114
                      A                      A                      A
 Frequencies --   1371.2049              1381.7524              1384.9721
 Red. masses --      2.3289                 1.9641                 6.0351
 Frc consts  --      2.5800                 2.2094                 6.8205
 IR Inten    --    176.6481                87.0228               176.1706

                    115                    116                    117
                      A                      A                      A
 Frequencies --   1395.4087              1403.4546              1415.2818
 Red. masses --      1.5493                 1.3314                 6.9185
 Frc consts  --      1.7774                 1.5451                 8.1648
 IR Inten    --     46.4596                 6.2627                 3.6521

                    118                    119                    120
                      A                      A                      A
 Frequencies --   1420.3597              1425.9087              1434.7952
 Red. masses --      1.3609                 1.5341                 1.4292
 Frc consts  --      1.6176                 1.8377                 1.7335
 IR Inten    --     21.7801                20.1402                 7.6705

                    121                    122                    123
                      A                      A                      A
 Frequencies --   1464.2564              1472.8296              1473.4215
 Red. masses --      1.0789                 1.1201                 1.1208
 Frc consts  --      1.3629                 1.4316                 1.4336
 IR Inten    --      2.7240                 6.7010                 7.1526

                    124                    125                    126
                      A                      A                      A
 Frequencies --   1474.8786              1476.1959              1483.1159
 Red. masses --      1.1433                 1.1463                 1.0521
 Frc consts  --      1.4653                 1.4717                 1.3636
 IR Inten    --      5.2774                 3.7817                 0.9623

                    127                    128                    129
                      A                      A                      A
 Frequencies --   1483.9295              1489.5571              1495.8011
 Red. masses --      1.0603                 4.1364                 1.0949
 Frc consts  --      1.3756                 5.4074                 1.4433
 IR Inten    --      4.4496                 0.9336                 7.5990

                    130                    131                    132
                      A                      A                      A
 Frequencies --   1500.6156              1504.4477              1508.1733
 Red. masses --      1.1184                 4.2606                 1.0512
 Frc consts  --      1.4839                 5.6816                 1.4088
 IR Inten    --      1.0890                 0.1790                10.0898

                    133                    134                    135
                      A                      A                      A
 Frequencies --   1509.9966              1511.0139              1513.0080
 Red. masses --      1.0467                 1.0488                 1.0467
 Frc consts  --      1.4061                 1.4109                 1.4118
 IR Inten    --     13.4633                 6.0938                 7.9871

                    136                    137                    138
                      A                      A                      A
 Frequencies --   1657.4206              1682.1035              2970.8820
 Red. masses --      6.6903                 6.1578                 1.0820
 Frc consts  --     10.8283                10.2656                 5.6269
 IR Inten    --     15.4492                18.5196                55.7827

                    139                    140                    141
                      A                      A                      A
 Frequencies --   2996.4336              2997.4068              3003.2750
 Red. masses --      1.0346                 1.0349                 1.0336
 Frc consts  --      5.4730                 5.4783                 5.4928
 IR Inten    --    136.2149                45.4017                77.8035

                    142                    143                    144
                      A                      A                      A
 Frequencies --   3005.0131              3012.5343              3019.4845
 Red. masses --      1.0336                 1.0782                 1.0824
 Frc consts  --      5.4992                 5.7654                 5.8144
 IR Inten    --     88.6705                15.1744                11.7413

                    145                    146                    147
                      A                      A                      A
 Frequencies --   3022.8776              3033.7398              3072.9777
 Red. masses --      1.0703                 1.0849                 1.1062
 Frc consts  --      5.7623                 5.8827                 6.1548
 IR Inten    --     56.2925                91.4323                72.2181

                    148                    149                    150
                      A                      A                      A
 Frequencies --   3082.5725              3084.8854              3091.1867
 Red. masses --      1.1033                 1.1043                 1.1046
 Frc consts  --      6.1768                 6.1919                 6.2188
 IR Inten    --     66.5709                58.8316                55.1152

                    151                    152                    153
                      A                      A                      A
 Frequencies --   3112.0643              3123.7701              3143.7373
 Red. masses --      1.0877                 1.0983                 1.1032
 Frc consts  --      6.2065                 6.3144                 6.4237
 IR Inten    --     18.4099                20.9977                54.7199

                    154                    155                    156
                      A                      A                      A
 Frequencies --   3147.5617              3149.1510              3159.4026
 Red. masses --      1.1026                 1.1033                 1.1008
 Frc consts  --      6.4360                 6.4466                 6.4738
 IR Inten    --     46.6314                41.5859                35.1196

                    157                    158                    159
                      A                      A                      A
 Frequencies --   3212.1338              3216.4258              3224.1221
 Red. masses --      1.0922                 1.0917                 1.0919
 Frc consts  --      6.6397                 6.6542                 6.6874
 IR Inten    --      3.2035                 0.1826                 4.6017

 - Thermochemistry -
 -------------------
 Temperature   298.150 Kelvin.  Pressure   1.00000 Atm.
 Atom     1 has atomic number  6 and mass  12.00000

 Molecular mass:   512.09396 amu.
 Principal axes and moments of inertia in atomic units:
                           1         2         3
     Eigenvalues --  ******************************
           X            0.99994   0.00764   0.00821
           Y           -0.00900   0.98358   0.18027
           Z           -0.00670  -0.18034   0.98358
 This molecule is an asymmetric top.
 Rotational symmetry number  1.
 Warning -- assumption of classical behavior for rotation
           may cause significant error
 Rotational temperatures (Kelvin)      0.00727     0.00408     0.00402
 Rotational constants (GHZ):           0.15152     0.08502     0.08378
 Zero-point vibrational energy    1076919.6 (Joules/Mol)
                                  257.38997 (Kcal/Mol)
 Warning -- explicit consideration of  56 degrees of freedom as
           vibrations may cause significant error
 Vibrational temperatures:     24.19    27.43    46.79    49.09    52.85
          (Kelvin)             53.37    64.48    78.44    93.56   100.60
                              111.45   124.86   143.46   143.65   158.23
                              167.34   192.91   216.33   234.35   241.77
                              247.08   256.87   283.19   292.50   319.86
                              338.14   348.81   354.99   366.16   400.12
                              406.03   413.98   419.70   424.38   445.53
                              475.63   493.93   511.51   521.61   529.92
                              591.42   606.89   622.00   653.68   669.29
                              688.59   704.50   710.62   749.34   758.99
                              786.00   812.89   819.33   830.88   869.92
                              881.63   930.06   967.57   972.56   973.47
                             1019.72  1029.81  1062.57  1132.00  1194.36
                             1215.17  1239.71  1266.89  1292.89  1330.80
                             1335.35  1350.18  1396.53  1419.41  1459.60
                             1466.74  1480.37  1511.14  1565.14  1605.04
                             1617.93  1622.94  1634.98  1637.09  1640.19
                             1653.35  1659.93  1669.40  1670.49  1678.97
                             1691.29  1694.01  1696.98  1701.21  1702.65
                             1710.33  1719.50  1722.26  1730.37  1741.24
                             1750.95  1763.98  1775.29  1820.91  1852.82
                             1874.87  1880.89  1916.58  1928.72  1957.50
                             1961.05  1972.86  1988.03  1992.67  2007.68
                             2019.26  2036.27  2043.58  2051.56  2064.35
                             2106.74  2119.07  2119.92  2122.02  2123.92
                             2133.87  2135.04  2143.14  2152.12  2159.05
                             2164.56  2169.92  2172.55  2174.01  2176.88
                             2384.66  2420.17  4274.44  4311.20  4312.60
                             4321.04  4323.54  4334.36  4344.36  4349.25
                             4364.87  4421.33  4435.13  4438.46  4447.53
                             4477.57  4494.41  4523.14  4528.64  4530.93
                             4545.68  4621.54  4627.72  4638.79

 Zero-point correction=                           0.410177 (Hartree/Particle)
 Thermal correction to Energy=                    0.443548
 Thermal correction to Enthalpy=                  0.444492
 Thermal correction to Gibbs Free Energy=         0.341867
 Sum of electronic and zero-point Energies=          -2297.460229
 Sum of electronic and thermal Energies=             -2297.426858
 Sum of electronic and thermal Enthalpies=           -2297.425914
 Sum of electronic and thermal Free Energies=        -2297.528538

                     E (Thermal)             CV                S
                      KCal/Mol        Cal/Mol-Kelvin    Cal/Mol-Kelvin
 Total                  278.330            120.929            215.992
 Electronic               0.000              0.000              0.000
 Translational            0.889              2.981             44.587
 Rotational               0.889              2.981             36.941
 Vibrational            276.553            114.967            134.464
 Vibration     1          0.593              1.986              6.979
 Vibration     2          0.593              1.986              6.729
 Vibration     3          0.594              1.983              5.669
 Vibration     4          0.594              1.983              5.574
 Vibration     5          0.594              1.982              5.428
 Vibration     6          0.594              1.982              5.408
 Vibration     7          0.595              1.979              5.034
 Vibration     8          0.596              1.976              4.646
 Vibration     9          0.597              1.971              4.298
 Vibration    10          0.598              1.968              4.156
 Vibration    11          0.599              1.964              3.954
 Vibration    12          0.601              1.958              3.731
 Vibration    13          0.604              1.949              3.460
 Vibration    14          0.604              1.949              3.457
 Vibration    15          0.606              1.941              3.269
 Vibration    16          0.608              1.936              3.161
 Vibration    17          0.613              1.919              2.887
 Vibration    18          0.618              1.902              2.668
 Vibration    19          0.623              1.888              2.516
 Vibration    20          0.625              1.882              2.457
 Vibration    21          0.626              1.877              2.416
 Vibration    22          0.629              1.869              2.344
 Vibration    23          0.636              1.844              2.163
 Vibration    24          0.639              1.835              2.103
 Vibration    25          0.648              1.807              1.940
 Vibration    26          0.655              1.787              1.840
 Vibration    27          0.659              1.775              1.785
 Vibration    28          0.661              1.768              1.754
 Vibration    29          0.665              1.755              1.699
 Vibration    30          0.679              1.714              1.545
 Vibration    31          0.681              1.707              1.520
 Vibration    32          0.685              1.697              1.487
 Vibration    33          0.687              1.689              1.464
 Vibration    34          0.689              1.683              1.445
 Vibration    35          0.699              1.655              1.364
 Vibration    36          0.713              1.614              1.257
 Vibration    37          0.722              1.589              1.197
 Vibration    38          0.731              1.564              1.142
 Vibration    39          0.736              1.549              1.111
 Vibration    40          0.741              1.537              1.087
 Vibration    41          0.775              1.446              0.923
 Vibration    42          0.784              1.423              0.886
 Vibration    43          0.793              1.400              0.851
 Vibration    44          0.813              1.351              0.783
 Vibration    45          0.823              1.327              0.751
 Vibration    46          0.835              1.298              0.714
 Vibration    47          0.845              1.273              0.685
 Vibration    48          0.850              1.264              0.674
 Vibration    49          0.876              1.204              0.608
 Vibration    50          0.882              1.189              0.593
 Vibration    51          0.901              1.148              0.552
 Vibration    52          0.921              1.107              0.514
 Vibration    53          0.926              1.097              0.505
 Vibration    54          0.934              1.080              0.490
 Vibration    55          0.963              1.022              0.442
 Vibration    56          0.972              1.005              0.428

                           ! Non-Optimized Parameters !
 Normal termination of Gaussian 16 at Sat Jun 15 10:13:53 2019.
