 Gaussian 16, Revision A.03,
 Gaussian 16:  AS64L-G16RevA.03 25-Dec-2016

 ----------------------------------------------------------------------
 #p opt freq=noraman pop=none 6-31g* scrf=(pcm,solvent=tetrahydrofuran)
  n12sx extrabasis
 ----------------------------------------------------------------------

 -----
 title
 -----
 Symbolic Z-matrix:
 Charge =  0 Multiplicity = 1

 SCF Done:  E(RN12SX) =  -2297.21879513     A.U. after   14 cycles
 Optimization completed.
    -- Stationary point found.
 Normal termination of Gaussian 16 at Sat Jun 15 09:04:09 2019.

 ------------------------------------------------------------------
 #P Geom=AllCheck Guess=TCheck SCRF=Check GenChk RN12SX/ChkBas Freq
 ------------------------------------------------------------------

 Structure from the checkpoint file:  "/scratch/users/ekwan/clay_new-glu_gluC6-bisCF3-sm-n12sx-custom-pcm_thf/Gau-36512.chk"
 -----
 title
 -----
 Charge =  0 Multiplicity = 1

                         Standard orientation:
 ---------------------------------------------------------------------
 Center     Atomic      Atomic             Coordinates (Angstroms)
 Number     Number       Type             X           Y           Z
 ---------------------------------------------------------------------
      1          6           0        3.461943   -0.189536    0.762522
      2          6           0        3.351969   -0.453613   -0.735118
      3          6           0        1.894988   -0.378506   -1.202132
      4          6           0        1.282884    1.064540    0.589859
      5          6           0        2.712554    1.087679    1.121867
      6          1           0        1.815397   -0.434730   -2.283887
      7          1           0        3.873448    0.359837   -1.254801
      8          1           0        3.011124   -1.021840    1.312453
      9          1           0        0.725932    0.281969    1.114251
     10          1           0        3.230541    1.937618    0.670192
     11          8           0        1.268930    0.782970   -0.813131
     12          8           0        1.225985   -1.539645   -0.649343
     13          8           0        3.946279   -1.679548   -1.037856
     14          8           0        4.803770   -0.025648    1.142846
     15          8           0        2.641554    1.237119    2.516762
     16          6           0        0.559303    2.377764    0.827488
     17          1           0        0.435912    2.480122    1.904749
     18          1           0       -0.433521    2.330387    0.370435
     19          8           0        1.253986    3.514033    0.388964
     20         16           0       -0.066924   -2.155983   -1.376731
     21          8           0       -0.161867   -3.512975   -0.878532
     22          8           0        0.032447   -1.885880   -2.802008
     23          6           0       -1.422373   -1.220562   -0.719915
     24          6           0       -2.085667   -1.694950    0.402426
     25          6           0       -1.790441   -0.037398   -1.344548
     26          6           0       -3.148226   -0.957126    0.906862
     27          1           0       -1.782988   -2.621844    0.866122
     28          6           0       -2.847383    0.689807   -0.816189
     29          1           0       -1.269578    0.305932   -2.225079
     30          6           0       -3.529130    0.234904    0.305369
     31          1           0       -4.354272    0.804603    0.705724
     32          6           0        4.342934   -1.842660   -2.380720
     33          1           0        3.487700   -1.902189   -3.058970
     34          1           0        4.993596   -1.023669   -2.700763
     35          1           0        4.893874   -2.777935   -2.436837
     36          6           0        5.435386   -1.177024    1.653815
     37          1           0        6.444709   -0.884598    1.936510
     38          1           0        4.915694   -1.550678    2.541579
     39          1           0        5.484075   -1.972255    0.909785
     40          6           0        3.509512    2.208144    3.055254
     41          1           0        3.348815    2.216729    4.131517
     42          1           0        4.552601    1.964429    2.848248
     43          1           0        3.285051    3.201237    2.654906
     44          6           0        1.069439    3.851527   -0.966267
     45          1           0        1.489786    4.845403   -1.108132
     46          1           0        0.005464    3.876891   -1.221704
     47          1           0        1.570551    3.151252   -1.636509
     48          6           0       -3.925614   -1.482979    2.078420
     49          9           0       -3.157061   -2.226553    2.881586
     50          9           0       -4.945800   -2.254254    1.678737
     51          9           0       -4.443386   -0.488258    2.808017
     52          6           0       -3.214123    2.007545   -1.432048
     53          9           0       -2.495366    3.010642   -0.893295
     54          9           0       -4.502293    2.303176   -1.238758
     55          9           0       -2.977152    2.019728   -2.746884
 ---------------------------------------------------------------------

 SCF Done:  E(RN12SX) =  -2297.21879513     A.U. after    1 cycles

 Isotropic polarizability for W=    0.000000      274.13 Bohr**3.
 End of Minotr F.D. properties file   721 does not exist.

                      1                      2                      3
                      A                      A                      A
 Frequencies --      9.1424                12.4928                21.2671
 Red. masses --      3.3436                 8.6519                 6.5169
 Frc consts  --      0.0002                 0.0008                 0.0017
 IR Inten    --      3.2286                 0.3416                 0.1890

                      4                      5                      6
                      A                      A                      A
 Frequencies --     24.9034                27.7797                41.3513
 Red. masses --     17.0464                 8.6676                 5.1823
 Frc consts  --      0.0062                 0.0039                 0.0052
 IR Inten    --      0.0549                 0.1748                 1.3789

                      7                      8                      9
                      A                      A                      A
 Frequencies --     49.3625                55.3373                58.9156
 Red. masses --      4.2960                 4.0220                 5.9903
 Frc consts  --      0.0062                 0.0073                 0.0123
 IR Inten    --      0.9372                 2.7238                 0.7474

                     10                     11                     12
                      A                      A                      A
 Frequencies --     70.8885                73.1728                84.7880
 Red. masses --      3.3949                 4.0155                 3.2920
 Frc consts  --      0.0101                 0.0127                 0.0139
 IR Inten    --      4.5863                 0.4080                 1.5353

                     13                     14                     15
                      A                      A                      A
 Frequencies --     87.7753               101.0356               103.0731
 Red. masses --      2.3448                10.1458                 6.9877
 Frc consts  --      0.0106                 0.0610                 0.0437
 IR Inten    --      5.0812                 3.1546                 4.0514

                     16                     17                     18
                      A                      A                      A
 Frequencies --    112.8498               119.2522               152.7885
 Red. masses --      3.0011                 5.0246                 7.4088
 Frc consts  --      0.0225                 0.0421                 0.1019
 IR Inten    --      2.5274                 2.4932                 0.2152

                     19                     20                     21
                      A                      A                      A
 Frequencies --    157.4867               162.8057               172.3755
 Red. masses --      1.3989                 2.0622                 3.2242
 Frc consts  --      0.0204                 0.0322                 0.0564
 IR Inten    --      0.6749                 0.5623                 1.8563

                     22                     23                     24
                      A                      A                      A
 Frequencies --    177.6331               187.8478               191.1972
 Red. masses --      1.5909                 3.6245                 1.7719
 Frc consts  --      0.0296                 0.0754                 0.0382
 IR Inten    --      2.7212                 3.9444                 2.2794

                     25                     26                     27
                      A                      A                      A
 Frequencies --    199.8006               227.8907               239.1064
 Red. masses --      1.7638                 3.0426                12.0609
 Frc consts  --      0.0415                 0.0931                 0.4063
 IR Inten    --      0.4017                12.4917                 0.1817

                     28                     29                     30
                      A                      A                      A
 Frequencies --    248.0514               258.0468               261.5613
 Red. masses --      4.1987                 3.4175                 6.8698
 Frc consts  --      0.1522                 0.1341                 0.2769
 IR Inten    --      5.1870                10.6203                10.9791

                     31                     32                     33
                      A                      A                      A
 Frequencies --    285.5380               289.5130               295.0962
 Red. masses --     11.0304                 5.2152                10.6665
 Frc consts  --      0.5299                 0.2575                 0.5473
 IR Inten    --      2.5513                10.3231                 3.9278

                     34                     35                     36
                      A                      A                      A
 Frequencies --    298.0971               316.5460               325.7270
 Red. masses --      7.4393                 5.4225                 4.0800
 Frc consts  --      0.3895                 0.3201                 0.2550
 IR Inten    --     10.3194                 0.3230                 5.1818

                     37                     38                     39
                      A                      A                      A
 Frequencies --    348.6149               355.4924               360.3639
 Red. masses --      6.7455                 5.6068                 5.8709
 Frc consts  --      0.4830                 0.4175                 0.4492
 IR Inten    --      0.5302                 2.4213                 9.2006

                     40                     41                     42
                      A                      A                      A
 Frequencies --    374.4242               417.7071               425.2294
 Red. masses --      9.5201                 9.9193                 8.7036
 Frc consts  --      0.7864                 1.0197                 0.9272
 IR Inten    --     15.0421                16.6871                 7.2759

                     43                     44                     45
                      A                      A                      A
 Frequencies --    446.8355               457.5275               468.1680
 Red. masses --      2.2619                 4.7588                 8.8101
 Frc consts  --      0.2661                 0.5869                 1.1377
 IR Inten    --      8.6252                14.7270                19.0425

                     46                     47                     48
                      A                      A                      A
 Frequencies --    476.5630               500.4347               506.0745
 Red. masses --      4.1121                 7.4847                11.7783
 Frc consts  --      0.5502                 1.1044                 1.7773
 IR Inten    --      6.8010                19.9656                 0.9297

                     49                     50                     51
                      A                      A                      A
 Frequencies --    528.0922               536.1039               545.3109
 Red. masses --      4.1524                10.9077                 5.7293
 Frc consts  --      0.6823                 1.8471                 1.0038
 IR Inten    --     27.7185                41.9792                 7.4155

                     52                     53                     54
                      A                      A                      A
 Frequencies --    573.9055               577.7476               587.8662
 Red. masses --      3.8274                14.5072                11.1936
 Frc consts  --      0.7427                 2.8531                 2.2792
 IR Inten    --     43.0074                25.0860               270.3994

                     55                     56                     57
                      A                      A                      A
 Frequencies --    616.2177               623.3015               641.7400
 Red. masses --      6.6832                 7.9774                 5.7579
 Frc consts  --      1.4952                 1.8260                 1.3971
 IR Inten    --     43.5851                 5.7115                14.4814

                     58                     59                     60
                      A                      A                      A
 Frequencies --    684.4772               689.3080               696.6296
 Red. masses --      7.4885                12.7335                 5.8264
 Frc consts  --      2.0671                 3.5647                 1.6659
 IR Inten    --      1.0654                61.2879                24.6652

                     61                     62                     63
                      A                      A                      A
 Frequencies --    717.2176               729.0814               745.9731
 Red. masses --      2.4532                 9.2020                 5.6884
 Frc consts  --      0.7435                 2.8819                 1.8650
 IR Inten    --     32.7208                 5.3869                48.3257

                     64                     65                     66
                      A                      A                      A
 Frequencies --    836.3558               859.8163               870.4256
 Red. masses --      6.4482                 4.8607                 7.2663
 Frc consts  --      2.6575                 2.1172                 3.2436
 IR Inten    --    174.4519                11.2121               446.5117

                     67                     68                     69
                      A                      A                      A
 Frequencies --    877.3116               900.9222               930.4650
 Red. masses --     11.7025                 4.1972                 1.6135
 Frc consts  --      5.3068                 2.0072                 0.8230
 IR Inten    --     20.6292               160.4871                68.8270

                     70                     71                     72
                      A                      A                      A
 Frequencies --    954.4236               959.5880               975.1642
 Red. masses --      2.6230                 1.4332                 1.3687
 Frc consts  --      1.4078                 0.7775                 0.7668
 IR Inten    --     18.3742                 9.6104                 6.1229

                     73                     74                     75
                      A                      A                      A
 Frequencies --    999.7483              1008.3986              1022.6755
 Red. masses --      4.8006                 4.1132                 6.3476
 Frc consts  --      2.8270                 2.4643                 3.9114
 IR Inten    --     21.5797                51.1941                 3.4678

                     76                     77                     78
                      A                      A                      A
 Frequencies --   1038.6186              1058.1993              1068.8275
 Red. masses --      3.9643                 3.8317                 3.7604
 Frc consts  --      2.5196                 2.5280                 2.5310
 IR Inten    --     51.3783                 9.4815               127.8761

                     79                     80                     81
                      A                      A                      A
 Frequencies --   1113.3720              1137.0907              1144.5062
 Red. masses --      3.0011                10.7508                 2.6895
 Frc consts  --      2.1919                 8.1899                 2.0756
 IR Inten    --     16.6139                53.9448                75.2489

                     82                     83                     84
                      A                      A                      A
 Frequencies --   1147.9088              1153.1186              1154.0301
 Red. masses --      2.3465                 2.2241                 1.8845
 Frc consts  --      1.8217                 1.7424                 1.4787
 IR Inten    --     94.5282                 7.3043                24.4223

                     85                     86                     87
                      A                      A                      A
 Frequencies --   1166.2938              1177.8312              1196.4135
 Red. masses --      2.4262                 4.1781                 2.9336
 Frc consts  --      1.9444                 3.4151                 2.4740
 IR Inten    --    163.0746               420.3069                47.6743

                     88                     89                     90
                      A                      A                      A
 Frequencies --   1198.1826              1199.0712              1201.8035
 Red. masses --      1.8082                 1.4185                 1.4478
 Frc consts  --      1.5294                 1.2017                 1.2321
 IR Inten    --    178.2302                35.0826                35.1278

                     91                     92                     93
                      A                      A                      A
 Frequencies --   1203.4120              1205.3717              1207.4883
 Red. masses --      1.3705                 5.7041                 1.4449
 Frc consts  --      1.1694                 4.8829                 1.2412
 IR Inten    --      4.6290               414.9355                42.1261

                     94                     95                     96
                      A                      A                      A
 Frequencies --   1214.8031              1224.2935              1224.5960
 Red. masses --      1.7170                 4.3269                 6.1694
 Frc consts  --      1.4929                 3.8212                 5.4510
 IR Inten    --     81.9048               164.1472               236.0134

                     97                     98                     99
                      A                      A                      A
 Frequencies --   1235.9277              1238.8325              1245.9970
 Red. masses --      2.6801                 2.5727                 1.8997
 Frc consts  --      2.4120                 2.3263                 1.7377
 IR Inten    --    148.2841               228.9979                91.8497

                    100                    101                    102
                      A                      A                      A
 Frequencies --   1251.1601              1257.3101              1257.8589
 Red. masses --      7.9310                 2.0907                 7.4611
 Frc consts  --      7.3148                 1.9473                 6.9553
 IR Inten    --    177.8548                42.9267               253.8729

                    103                    104                    105
                      A                      A                      A
 Frequencies --   1263.8671              1282.7266              1313.6521
 Red. masses --      2.5459                 1.8636                 3.0907
 Frc consts  --      2.3960                 1.8067                 3.1424
 IR Inten    --    102.2823                13.8886               744.7316

                    106                    107                    108
                      A                      A                      A
 Frequencies --   1320.3094              1326.0289              1356.5067
 Red. masses --      1.4869                 1.4033                13.9361
 Frc consts  --      1.5272                 1.4538                15.1090
 IR Inten    --      4.6637                61.2357               342.3026

                    109                    110                    111
                      A                      A                      A
 Frequencies --   1357.1046              1361.9530              1389.8392
 Red. masses --      1.3705                 1.3141                 1.2141
 Frc consts  --      1.4872                 1.4361                 1.3817
 IR Inten    --      6.7390                17.8796                 8.2805

                    112                    113                    114
                      A                      A                      A
 Frequencies --   1392.5665              1402.9771              1410.5488
 Red. masses --      1.2395                 6.0360                 4.2560
 Frc consts  --      1.4162                 7.0001                 4.9892
 IR Inten    --     40.6021               188.1202                 0.4065

                    115                    116                    117
                      A                      A                      A
 Frequencies --   1410.9424              1420.8040              1434.0918
 Red. masses --      1.4947                 1.4427                 1.3050
 Frc consts  --      1.7532                 1.7159                 1.5813
 IR Inten    --      2.5517                 9.4340                 8.9261

                    118                    119                    120
                      A                      A                      A
 Frequencies --   1442.8746              1449.9775              1461.6068
 Red. masses --      1.4225                 1.3253                 1.3776
 Frc consts  --      1.7449                 1.6417                 1.7340
 IR Inten    --     33.7710                12.9363                15.6855

                    121                    122                    123
                      A                      A                      A
 Frequencies --   1504.9245              1509.3505              1512.4348
 Red. masses --      1.1002                 1.1741                 1.1649
 Frc consts  --      1.4681                 1.5760                 1.5700
 IR Inten    --      2.7256                 0.9657                 3.3084

                    124                    125                    126
                      A                      A                      A
 Frequencies --   1512.6883              1514.3558              1521.0177
 Red. masses --      3.8674                 1.1265                 4.1749
 Frc consts  --      5.2139                 1.5221                 5.6907
 IR Inten    --      3.1810                 6.2417                 0.2297

                    127                    128                    129
                      A                      A                      A
 Frequencies --   1521.3519              1522.3030              1523.8894
 Red. masses --      1.0610                 1.0583                 1.0532
 Frc consts  --      1.4468                 1.4449                 1.4410
 IR Inten    --      3.9577                 4.4056                10.3162

                    130                    131                    132
                      A                      A                      A
 Frequencies --   1529.5670              1531.5371              1540.1815
 Red. masses --      1.1359                 1.0837                 1.0541
 Frc consts  --      1.5658                 1.4976                 1.4733
 IR Inten    --      5.1920                 5.7681                14.2997

                    133                    134                    135
                      A                      A                      A
 Frequencies --   1547.2751              1548.4991              1551.3465
 Red. masses --      1.0476                 1.0499                 1.0594
 Frc consts  --      1.4777                 1.4832                 1.5022
 IR Inten    --      6.8516                12.7964                11.0243

                    136                    137                    138
                      A                      A                      A
 Frequencies --   1682.5598              1703.0138              3060.7709
 Red. masses --      6.5727                 6.2725                 1.0809
 Frc consts  --     10.9631                10.7183                 5.9660
 IR Inten    --     21.7900                24.4691                21.9219

                    139                    140                    141
                      A                      A                      A
 Frequencies --   3070.4679              3072.8858              3073.4646
 Red. masses --      1.0367                 1.0387                 1.0377
 Frc consts  --      5.7586                 5.7786                 5.7755
 IR Inten    --     76.4365                64.6584                66.2324

                    142                    143                    144
                      A                      A                      A
 Frequencies --   3075.0653              3090.0724              3091.0926
 Red. masses --      1.0355                 1.0829                 1.0799
 Frc consts  --      5.7689                 6.0925                 6.0795
 IR Inten    --     51.2070                21.4227                 2.8158

                    145                    146                    147
                      A                      A                      A
 Frequencies --   3105.3928              3113.3088              3136.9396
 Red. masses --      1.0673                 1.0845                 1.1063
 Frc consts  --      6.0643                 6.1936                 6.4140
 IR Inten    --     30.7462                69.1214                57.0592

                    148                    149                    150
                      A                      A                      A
 Frequencies --   3150.8995              3154.0659              3159.5488
 Red. masses --      1.1014                 1.1011                 1.0954
 Frc consts  --      6.4427                 6.4541                 6.4428
 IR Inten    --     42.7261                47.0257                46.2547

                    151                    152                    153
                      A                      A                      A
 Frequencies --   3178.3417              3195.0276              3199.0874
 Red. masses --      1.1014                 1.1040                 1.1041
 Frc consts  --      6.5556                 6.6397                 6.6577
 IR Inten    --     16.8001                41.3337                33.6345

                    154                    155                    156
                      A                      A                      A
 Frequencies --   3201.0149              3201.6596              3210.2730
 Red. masses --      1.0884                 1.1056                 1.1006
 Frc consts  --      6.5709                 6.6772                 6.6827
 IR Inten    --     10.9360                30.6003                23.7757

                    157                    158                    159
                      A                      A                      A
 Frequencies --   3293.0606              3295.9350              3301.0063
 Red. masses --      1.0925                 1.0925                 1.0925
 Frc consts  --      6.9804                 6.9926                 7.0142
 IR Inten    --      2.3519                 9.0461                 6.4357

 - Thermochemistry -
 -------------------
 Temperature   298.150 Kelvin.  Pressure   1.00000 Atm.
 Atom     1 has atomic number  6 and mass  12.00000

 Molecular mass:   512.09396 amu.
 Principal axes and moments of inertia in atomic units:
                           1         2         3
     Eigenvalues --  ******************************
           X            0.99994  -0.00121   0.01074
           Y            0.00031   0.99656   0.08289
           Z           -0.01081  -0.08288   0.99650
 This molecule is an asymmetric top.
 Rotational symmetry number  1.
 Warning -- assumption of classical behavior for rotation
           may cause significant error
 Rotational temperatures (Kelvin)      0.00731     0.00395     0.00365
 Rotational constants (GHZ):           0.15223     0.08240     0.07601
 Zero-point vibrational energy    1099084.4 (Joules/Mol)
                                  262.68749 (Kcal/Mol)
 Warning -- explicit consideration of  55 degrees of freedom as
           vibrations may cause significant error
 Vibrational temperatures:     13.15    17.97    30.60    35.83    39.97
          (Kelvin)             59.50    71.02    79.62    84.77   101.99
                              105.28   121.99   126.29   145.37   148.30
                              162.37   171.58   219.83   226.59   234.24
                              248.01   255.57   270.27   275.09   287.47
                              327.88   344.02   356.89   371.27   376.33
                              410.83   416.54   424.58   428.90   455.44
                              468.65   501.58   511.47   518.48   538.71
                              600.99   611.81   642.90   658.28   673.59
                              685.67   720.01   728.13   759.81   771.33
                              784.58   825.72   831.25   845.81   886.60
                              896.79   923.32   984.81   991.76  1002.29
                             1031.92  1048.99  1073.29  1203.33  1237.08
                             1252.35  1262.26  1296.23  1338.73  1373.20
                             1380.63  1403.04  1438.41  1450.86  1471.40
                             1494.34  1522.51  1537.80  1601.89  1636.02
                             1646.69  1651.58  1659.08  1660.39  1678.04
                             1694.64  1721.37  1723.92  1725.20  1729.13
                             1731.44  1734.26  1737.31  1747.83  1761.49
                             1761.92  1778.22  1782.40  1792.71  1800.14
                             1808.99  1809.78  1818.42  1845.56  1890.05
                             1899.63  1907.86  1951.71  1952.57  1959.55
                             1999.67  2003.59  2018.57  2029.47  2030.03
                             2044.22  2063.34  2075.97  2086.19  2102.93
                             2165.25  2171.62  2176.06  2176.42  2178.82
                             2188.41  2188.89  2190.25  2192.54  2200.71
                             2203.54  2215.98  2226.18  2227.94  2232.04
                             2420.83  2450.26  4403.77  4417.72  4421.20
                             4422.03  4424.33  4445.92  4447.39  4467.97
                             4479.36  4513.36  4533.44  4538.00  4545.89
                             4572.92  4596.93  4602.77  4605.55  4606.47
                             4618.87  4737.98  4742.12  4749.41

 Zero-point correction=                           0.418619 (Hartree/Particle)
 Thermal correction to Energy=                    0.451979
 Thermal correction to Enthalpy=                  0.452923
 Thermal correction to Gibbs Free Energy=         0.348166
 Sum of electronic and zero-point Energies=          -2296.800176
 Sum of electronic and thermal Energies=             -2296.766816
 Sum of electronic and thermal Enthalpies=           -2296.765872
 Sum of electronic and thermal Free Energies=        -2296.870629

                     E (Thermal)             CV                S
                      KCal/Mol        Cal/Mol-Kelvin    Cal/Mol-Kelvin
 Total                  283.621            119.334            220.479
 Electronic               0.000              0.000              0.000
 Translational            0.889              2.981             44.587
 Rotational               0.889              2.981             37.064
 Vibrational            281.844            113.372            138.828
 Vibration     1          0.593              1.987              8.189
 Vibration     2          0.593              1.987              7.569
 Vibration     3          0.593              1.985              6.512
 Vibration     4          0.593              1.985              6.199
 Vibration     5          0.593              1.984              5.982
 Vibration     6          0.594              1.981              5.193
 Vibration     7          0.595              1.978              4.843
 Vibration     8          0.596              1.975              4.617
 Vibration     9          0.596              1.974              4.493
 Vibration    10          0.598              1.968              4.129
 Vibration    11          0.599              1.967              4.066
 Vibration    12          0.601              1.960              3.777
 Vibration    13          0.601              1.958              3.709
 Vibration    14          0.604              1.948              3.434
 Vibration    15          0.605              1.947              3.395
 Vibration    16          0.607              1.939              3.219
 Vibration    17          0.609              1.933              3.112
 Vibration    18          0.619              1.900              2.637
 Vibration    19          0.621              1.894              2.580
 Vibration    20          0.623              1.888              2.517
 Vibration    21          0.626              1.876              2.409
 Vibration    22          0.628              1.870              2.353
 Vibration    23          0.633              1.857              2.249
 Vibration    24          0.634              1.852              2.216
 Vibration    25          0.638              1.840              2.135
 Vibration    26          0.651              1.798              1.895
 Vibration    27          0.657              1.781              1.810
 Vibration    28          0.662              1.766              1.744
 Vibration    29          0.667              1.749              1.675
 Vibration    30          0.669              1.743              1.651
 Vibration    31          0.683              1.701              1.500
 Vibration    32          0.686              1.693              1.477
 Vibration    33          0.689              1.683              1.445
 Vibration    34          0.691              1.677              1.428
 Vibration    35          0.703              1.642              1.328
 Vibration    36          0.710              1.624              1.281
 Vibration    37          0.726              1.578              1.172
 Vibration    38          0.731              1.564              1.142
 Vibration    39          0.735              1.554              1.121
 Vibration    40          0.746              1.525              1.062
 Vibration    41          0.781              1.432              0.900
 Vibration    42          0.787              1.415              0.874
 Vibration    43          0.806              1.368              0.805
 Vibration    44          0.816              1.344              0.773
 Vibration    45          0.825              1.321              0.743
 Vibration    46          0.833              1.302              0.719
 Vibration    47          0.856              1.249              0.657
 Vibration    48          0.861              1.237              0.643
 Vibration    49          0.883              1.188              0.591
 Vibration    50          0.891              1.170              0.574
 Vibration    51          0.900              1.150              0.554
 Vibration    52          0.930              1.088              0.497
 Vibration    53          0.934              1.079              0.490
 Vibration    54          0.945              1.058              0.471
 Vibration    55          0.976              0.998              0.423

                           ! Non-Optimized Parameters !
 Normal termination of Gaussian 16 at Sat Jun 15 09:56:43 2019.
