 Gaussian 16, Revision A.03,
 Gaussian 16:  AS64L-G16RevA.03 25-Dec-2016

 ----------------------------------------------------------------------
 #p opt freq=noraman pop=none 6-31g* scrf=(pcm,solvent=tetrahydrofuran)
  bp86 empiricaldispersion=gd3bj extrabasis
 ----------------------------------------------------------------------

 -----
 title
 -----
 Symbolic Z-matrix:
 Charge =  0 Multiplicity = 1

 SCF Done:  E(RB-P86) =  -2298.23158505     A.U. after   15 cycles
 SCF Done:  E(RB-P86) =  -2298.23158487     A.U. after    6 cycles
 SCF Done:  E(RB-P86) =  -2298.23158502     A.U. after    6 cycles
 Optimization completed.
    -- Stationary point found.
 Normal termination of Gaussian 16 at Sat Jun 15 08:06:33 2019.

 -----------------------------------------------------------------
 #P Geom=AllCheck Guess=TCheck SCRF=Check GenChk RBP86/ChkBas Freq
 -----------------------------------------------------------------

 Structure from the checkpoint file:  "/scratch/users/ekwan/clay_new-glu_gluC6-bisCF3-sm-bp86_d3bj-custom-pcm_thf/Gau-25574.chk"
 -----
 title
 -----
 Charge =  0 Multiplicity = 1

                         Standard orientation:
 ---------------------------------------------------------------------
 Center     Atomic      Atomic             Coordinates (Angstroms)
 Number     Number       Type             X           Y           Z
 ---------------------------------------------------------------------
      1          6           0       -3.365547   -0.543783    0.477826
      2          6           0       -3.324790    0.589995   -0.559626
      3          6           0       -1.872290    1.041601   -0.832449
      4          6           0       -0.965600   -1.084380   -0.179865
      5          6           0       -2.366704   -1.646575    0.103462
      6          1           0       -1.803762    1.764418   -1.659310
      7          1           0       -3.703392    0.187939   -1.525443
      8          1           0       -3.091126   -0.141770    1.474243
      9          1           0       -0.542775   -0.674791    0.759172
     10          1           0       -2.726281   -2.160541   -0.808785
     11          8           0       -1.023939   -0.015403   -1.169728
     12          8           0       -1.438824    1.718748    0.404608
     13          8           0       -4.154356    1.648892   -0.107457
     14          8           0       -4.661258   -1.144208    0.523066
     15          8           0       -2.230590   -2.574285    1.182615
     16          6           0       -0.005400   -2.160140   -0.696911
     17          1           0        0.225768   -2.824005    0.151982
     18          1           0        0.932227   -1.677819   -1.037004
     19          8           0       -0.537113   -3.001151   -1.716469
     20         16           0       -0.121997    2.722618    0.291528
     21          8           0       -0.125507    3.452743    1.573642
     22          8           0       -0.161720    3.431994   -1.007551
     23          6           0        1.261424    1.573892    0.277395
     24          6           0        1.675059    1.008477    1.488957
     25          6           0        1.845667    1.237116   -0.948776
     26          6           0        2.721177    0.073332    1.462052
     27          1           0        1.193421    1.287876    2.429218
     28          6           0        2.891157    0.304250   -0.949188
     29          1           0        1.491608    1.690398   -1.876493
     30          6           0        3.330387   -0.280453    0.249551
     31          1           0        4.141241   -1.012754    0.238014
     32          6           0       -4.473566    2.605035   -1.125905
     33          1           0       -3.597708    3.220817   -1.408502
     34          1           0       -4.873357    2.105278   -2.031020
     35          1           0       -5.245960    3.263656   -0.700950
     36          6           0       -5.510200   -0.610859    1.545993
     37          1           0       -6.446560   -1.189980    1.502336
     38          1           0       -5.053973   -0.736932    2.549012
     39          1           0       -5.726127    0.459090    1.378471
     40          6           0       -2.889041   -3.822564    0.935777
     41          1           0       -2.701871   -4.452680    1.820169
     42          1           0       -3.977459   -3.680521    0.805992
     43          1           0       -2.472265   -4.319869    0.037620
     44          6           0       -0.557241   -2.387989   -3.011578
     45          1           0       -0.792363   -3.188179   -3.731660
     46          1           0        0.431609   -1.951981   -3.257288
     47          1           0       -1.320482   -1.591444   -3.084476
     48          6           0        3.229662   -0.517532    2.759260
     49          9           0        2.245644   -0.583528    3.696113
     50          9           0        4.237910    0.236519    3.280905
     51          9           0        3.717673   -1.774504    2.575597
     52          6           0        3.498647   -0.146992   -2.258184
     53          9           0        2.954553   -1.337360   -2.662980
     54          9           0        4.838827   -0.345330   -2.144761
     55          9           0        3.287749    0.751835   -3.253575
 ---------------------------------------------------------------------

 SCF Done:  E(RB-P86) =  -2298.23158502     A.U. after    1 cycles

 Isotropic polarizability for W=    0.000000      303.88 Bohr**3.
 End of Minotr F.D. properties file   721 does not exist.

                      1                      2                      3
                      A                      A                      A
 Frequencies --     11.9866                13.0269                20.6734
 Red. masses --      9.0797                 7.2437                17.8729
 Frc consts  --      0.0008                 0.0007                 0.0045
 IR Inten    --      0.3280                 0.1179                 0.0057

                      4                      5                      6
                      A                      A                      A
 Frequencies --     21.9321                34.6537                38.7688
 Red. masses --     12.9670                 4.5934                 4.5977
 Frc consts  --      0.0037                 0.0032                 0.0041
 IR Inten    --      0.0375                 0.1507                 1.6617

                      7                      8                      9
                      A                      A                      A
 Frequencies --     51.8659                52.0894                57.3732
 Red. masses --      4.5241                 3.5103                 4.2603
 Frc consts  --      0.0072                 0.0056                 0.0083
 IR Inten    --      0.6227                 2.0504                 0.7870

                     10                     11                     12
                      A                      A                      A
 Frequencies --     66.8500                71.3780                84.4997
 Red. masses --      3.1197                 3.8699                 2.6059
 Frc consts  --      0.0082                 0.0116                 0.0110
 IR Inten    --      5.6570                 0.7445                 4.8024

                     13                     14                     15
                      A                      A                      A
 Frequencies --     89.2681                95.3756                99.3200
 Red. masses --      3.5827                10.9042                 9.0349
 Frc consts  --      0.0168                 0.0584                 0.0525
 IR Inten    --      2.6078                 3.5218                 3.2344

                     16                     17                     18
                      A                      A                      A
 Frequencies --    109.5916               122.1950               145.1435
 Red. masses --      9.1459                 2.3642                 7.4626
 Frc consts  --      0.0647                 0.0208                 0.0926
 IR Inten    --      0.5388                 3.1561                 0.4997

                     19                     20                     21
                      A                      A                      A
 Frequencies --    150.2654               158.2511               164.0251
 Red. masses --      4.3471                 1.7539                 2.0961
 Frc consts  --      0.0578                 0.0259                 0.0332
 IR Inten    --      2.0692                 0.0054                 1.7114

                     22                     23                     24
                      A                      A                      A
 Frequencies --    175.5862               184.3623               190.2784
 Red. masses --      2.1378                 2.5381                 1.7439
 Frc consts  --      0.0388                 0.0508                 0.0372
 IR Inten    --      0.3130                 8.0607                 3.2835

                     25                     26                     27
                      A                      A                      A
 Frequencies --    202.3844               222.2745               225.6744
 Red. masses --      1.5849                 2.5152                 4.8038
 Frc consts  --      0.0382                 0.0732                 0.1441
 IR Inten    --      0.8228                 4.5729                 2.7850

                     28                     29                     30
                      A                      A                      A
 Frequencies --    237.1373               245.8683               256.1920
 Red. masses --      4.7621                 4.2270                 3.4659
 Frc consts  --      0.1578                 0.1506                 0.1340
 IR Inten    --      3.2757                 9.7696                10.0263

                     31                     32                     33
                      A                      A                      A
 Frequencies --    268.1693               275.1906               282.2717
 Red. masses --     10.4714                 5.6302                 5.3573
 Frc consts  --      0.4437                 0.2512                 0.2515
 IR Inten    --      4.4019                17.3854                 6.2499

                     34                     35                     36
                      A                      A                      A
 Frequencies --    283.0973               300.3685               313.8090
 Red. masses --     11.3673                 5.5484                 4.0948
 Frc consts  --      0.5368                 0.2949                 0.2376
 IR Inten    --      2.7307                 0.1867                 4.1254

                     37                     38                     39
                      A                      A                      A
 Frequencies --    329.4520               337.6238               344.8727
 Red. masses --      7.9780                 7.0587                 4.2181
 Frc consts  --      0.5102                 0.4741                 0.2956
 IR Inten    --      0.9413                 8.1501                 5.8365

                     40                     41                     42
                      A                      A                      A
 Frequencies --    348.7820               393.6097               405.0108
 Red. masses --      9.0609                10.3757                 9.1836
 Frc consts  --      0.6494                 0.9471                 0.8876
 IR Inten    --     19.5956                16.9327                 7.9075

                     43                     44                     45
                      A                      A                      A
 Frequencies --    418.8739               433.2656               441.8601
 Red. masses --      2.1500                 6.0880                 8.9380
 Frc consts  --      0.2223                 0.6733                 1.0282
 IR Inten    --      7.1829                11.3586                32.2774

                     46                     47                     48
                      A                      A                      A
 Frequencies --    455.4520               466.1002               474.8791
 Red. masses --      4.5321                 6.5193                12.0058
 Frc consts  --      0.5539                 0.8345                 1.5952
 IR Inten    --      4.6493                11.3215                 1.0575

                     49                     50                     51
                      A                      A                      A
 Frequencies --    497.8637               504.3973               518.0491
 Red. masses --      7.8271                 6.0368                 4.9523
 Frc consts  --      1.1431                 0.9049                 0.7831
 IR Inten    --     49.2849                 4.1717                45.9452

                     52                     53                     54
                      A                      A                      A
 Frequencies --    541.6120               547.8050               553.3970
 Red. masses --      8.9150                 7.7210                 4.4935
 Frc consts  --      1.5408                 1.3651                 0.8108
 IR Inten    --     86.8927                87.0816                61.0740

                     55                     56                     57
                      A                      A                      A
 Frequencies --    576.7712               587.3967               617.4218
 Red. masses --      6.6914                 8.1706                 5.6878
 Frc consts  --      1.3115                 1.6610                 1.2775
 IR Inten    --     24.1690                 2.5494                 4.8965

                     58                     59                     60
                      A                      A                      A
 Frequencies --    643.1030               645.2161               652.0105
 Red. masses --      7.2863                 7.7748                12.9708
 Frc consts  --      1.7755                 1.9070                 3.2488
 IR Inten    --    106.5283                 6.4497                49.0473

                     61                     62                     63
                      A                      A                      A
 Frequencies --    679.2045               686.5773               703.8541
 Red. masses --      2.6563                11.4128                 5.4041
 Frc consts  --      0.7220                 3.1697                 1.5774
 IR Inten    --     17.4927                 2.3167               224.8383

                     64                     65                     66
                      A                      A                      A
 Frequencies --    736.1943               794.1792               806.1296
 Red. masses --      7.5290                 4.4910                 6.8114
 Frc consts  --      2.4042                 1.6689                 2.6079
 IR Inten    --    342.8534                31.9197                25.8760

                     67                     68                     69
                      A                      A                      A
 Frequencies --    828.9349               839.6098               868.1735
 Red. masses --     11.6531                 4.0900                 1.5458
 Frc consts  --      4.7177                 1.6987                 0.6865
 IR Inten    --     32.3746                37.2581                61.3471

                     70                     71                     72
                      A                      A                      A
 Frequencies --    890.5316               897.5803               902.7636
 Red. masses --      3.1162                 1.3971                 1.3605
 Frc consts  --      1.4560                 0.6632                 0.6533
 IR Inten    --     36.6444                 1.1488                 2.6765

                     73                     74                     75
                      A                      A                      A
 Frequencies --    930.1266               942.7592               966.1304
 Red. masses --      5.1202                 4.3488                 3.9245
 Frc consts  --      2.6099                 2.2773                 2.1583
 IR Inten    --     14.0035                33.8574                48.5030

                     76                     77                     78
                      A                      A                      A
 Frequencies --    983.0682               986.2296              1004.4484
 Red. masses --      4.5132                 6.3392                 3.5059
 Frc consts  --      2.5698                 3.6328                 2.0840
 IR Inten    --     14.7001                 3.5659               124.7535

                     79                     80                     81
                      A                      A                      A
 Frequencies --   1043.1770              1066.8929              1078.6231
 Red. masses --      3.0701                10.8112                 5.4050
 Frc consts  --      1.9684                 7.2505                 3.7050
 IR Inten    --     13.6257                55.7102               193.2913

                     82                     83                     84
                      A                      A                      A
 Frequencies --   1080.2377              1088.3726              1090.3296
 Red. masses --      3.4826                 4.4171                 3.9940
 Frc consts  --      2.3943                 3.0828                 2.7975
 IR Inten    --    175.3099               305.3233                58.2789

                     85                     86                     87
                      A                      A                      A
 Frequencies --   1095.8316              1101.1739              1103.6787
 Red. masses --      2.6053                 2.7708                 4.0661
 Frc consts  --      1.8433                 1.9796                 2.9182
 IR Inten    --     69.9903               373.5550                81.2613

                     88                     89                     90
                      A                      A                      A
 Frequencies --   1106.8540              1110.0400              1119.0197
 Red. masses --      4.6130                 3.8639                 3.6823
 Frc consts  --      3.3298                 2.8051                 2.7167
 IR Inten    --    470.2639               135.9061                18.6207

                     91                     92                     93
                      A                      A                      A
 Frequencies --   1121.4389              1133.9951              1139.7012
 Red. masses --     12.0927                 4.2597                 1.9348
 Frc consts  --      8.9604                 3.2274                 1.4807
 IR Inten    --    300.6988               156.9060                54.0850

                     94                     95                     96
                      A                      A                      A
 Frequencies --   1144.0610              1145.4087              1145.8432
 Red. masses --      1.2685                 1.5782                 1.3674
 Frc consts  --      0.9782                 1.2199                 1.0578
 IR Inten    --      0.5924                24.7469                23.6012

                     97                     98                     99
                      A                      A                      A
 Frequencies --   1152.1714              1155.1665              1162.5235
 Red. masses --      1.3038                 6.0132                 5.0127
 Frc consts  --      1.0198                 4.7277                 3.9914
 IR Inten    --     10.8233               155.7288               203.2461

                    100                    101                    102
                      A                      A                      A
 Frequencies --   1169.7094              1178.5845              1185.1722
 Red. masses --      1.3389                 1.4318                 1.5869
 Frc consts  --      1.0793                 1.1718                 1.3133
 IR Inten    --     21.1903                17.7438                10.9513

                    103                    104                    105
                      A                      A                      A
 Frequencies --   1194.1538              1220.6983              1237.4000
 Red. masses --      1.5980                 1.7631                 3.3870
 Frc consts  --      1.3426                 1.5479                 3.0555
 IR Inten    --     10.0941                 7.2343               814.7817

                    106                    107                    108
                      A                      A                      A
 Frequencies --   1255.4360              1260.3889              1270.9882
 Red. masses --      1.4729                 4.1204                 1.5578
 Frc consts  --      1.3678                 3.8566                 1.4827
 IR Inten    --      3.7401               141.2724               116.9029

                    109                    110                    111
                      A                      A                      A
 Frequencies --   1282.5046              1297.7025              1317.0109
 Red. masses --      1.4246                 1.1786                 1.2341
 Frc consts  --      1.3806                 1.1694                 1.2612
 IR Inten    --      0.2010                10.5215                47.0641

                    112                    113                    114
                      A                      A                      A
 Frequencies --   1320.0960              1324.0751              1332.0709
 Red. masses --      1.2058                 5.5589                 1.2482
 Frc consts  --      1.2381                 5.7420                 1.3049
 IR Inten    --      8.5350               168.0780                 1.9647

                    115                    116                    117
                      A                      A                      A
 Frequencies --   1341.8167              1360.2195              1365.9355
 Red. masses --      1.4418                 1.3005                 1.4026
 Frc consts  --      1.5295                 1.4177                 1.5419
 IR Inten    --     12.3225                 3.8041                24.2120

                    118                    119                    120
                      A                      A                      A
 Frequencies --   1373.9712              1377.9186              1384.0548
 Red. masses --      7.8516                 1.3168                 1.3263
 Frc consts  --      8.7330                 1.4731                 1.4969
 IR Inten    --      0.6767                 9.1748                13.8321

                    121                    122                    123
                      A                      A                      A
 Frequencies --   1434.7916              1437.3844              1440.1588
 Red. masses --      1.1244                 3.3149                 1.1608
 Frc consts  --      1.3638                 4.0353                 1.4185
 IR Inten    --      5.1730                 2.6641                 0.7843

                    124                    125                    126
                      A                      A                      A
 Frequencies --   1442.4407              1445.7462              1454.1284
 Red. masses --      1.1533                 1.1306                 3.5674
 Frc consts  --      1.4138                 1.3924                 4.4444
 IR Inten    --      1.3594                 5.7790                 1.1585

                    127                    128                    129
                      A                      A                      A
 Frequencies --   1454.6074              1455.9647              1458.6141
 Red. masses --      1.0597                 1.1217                 1.0536
 Frc consts  --      1.3211                 1.4010                 1.3207
 IR Inten    --      1.8162                12.7418                 0.6686

                    130                    131                    132
                      A                      A                      A
 Frequencies --   1461.8549              1465.0552              1479.0748
 Red. masses --      1.0912                 1.0809                 1.0474
 Frc consts  --      1.3739                 1.3669                 1.3501
 IR Inten    --      1.2001                 6.9145                12.1642

                    133                    134                    135
                      A                      A                      A
 Frequencies --   1485.5989              1487.0813              1487.2031
 Red. masses --      1.0507                 1.0525                 1.0514
 Frc consts  --      1.3663                 1.3713                 1.3701
 IR Inten    --      6.4531                10.8873                 9.0629

                    136                    137                    138
                      A                      A                      A
 Frequencies --   1593.9276              1617.0584              2911.2047
 Red. masses --      6.6042                 6.2764                 1.0815
 Frc consts  --      9.8858                 9.6697                 5.4004
 IR Inten    --      8.9431                13.5780                34.5756

                    139                    140                    141
                      A                      A                      A
 Frequencies --   2934.5437              2935.6877              2941.5355
 Red. masses --      1.0363                 1.0396                 1.0351
 Frc consts  --      5.2577                 5.2789                 5.2771
 IR Inten    --    114.2689                47.5258                82.2849

                    142                    143                    144
                      A                      A                      A
 Frequencies --   2943.4375              2952.1941              2956.2531
 Red. masses --      1.0340                 1.0820                 1.0786
 Frc consts  --      5.2781                 5.5561                 5.5537
 IR Inten    --     58.6923                20.2389                 4.9938

                    145                    146                    147
                      A                      A                      A
 Frequencies --   2969.2055              2976.3453              2993.0093
 Red. masses --      1.0679                 1.0840                 1.1056
 Frc consts  --      5.5470                 5.6578                 5.8352
 IR Inten    --     39.1070                78.5465                65.8539

                    148                    149                    150
                      A                      A                      A
 Frequencies --   3008.1679              3012.0693              3015.4841
 Red. masses --      1.1024                 1.1022                 1.0938
 Frc consts  --      5.8775                 5.8915                 5.8602
 IR Inten    --     47.4741                54.6457                53.0816

                    151                    152                    153
                      A                      A                      A
 Frequencies --   3050.6262              3053.9320              3061.9254
 Red. masses --      1.0984                 1.0875                 1.1021
 Frc consts  --      6.0225                 5.9756                 6.0876
 IR Inten    --     18.6469                14.0456                47.7764

                    154                    155                    156
                      A                      A                      A
 Frequencies --   3063.9187              3065.5430              3076.8520
 Red. masses --      1.1022                 1.1035                 1.0986
 Frc consts  --      6.0961                 6.1098                 6.1278
 IR Inten    --     39.9581                38.1330                30.4116

                    157                    158                    159
                      A                      A                      A
 Frequencies --   3158.4839              3159.0989              3172.0568
 Red. masses --      1.0917                 1.0914                 1.0914
 Frc consts  --      6.4164                 6.4172                 6.4702
 IR Inten    --      0.3928                 5.1688                 6.6931

 - Thermochemistry -
 -------------------
 Temperature   298.150 Kelvin.  Pressure   1.00000 Atm.
 Atom     1 has atomic number  6 and mass  12.00000

 Molecular mass:   512.09396 amu.
 Principal axes and moments of inertia in atomic units:
                           1         2         3
     Eigenvalues --  ******************************
           X            0.99995   0.00898  -0.00365
           Y           -0.00893   0.99988   0.01248
           Z            0.00376  -0.01245   0.99992
 This molecule is an asymmetric top.
 Rotational symmetry number  1.
 Warning -- assumption of classical behavior for rotation
           may cause significant error
 Rotational temperatures (Kelvin)      0.00715     0.00407     0.00402
 Rotational constants (GHZ):           0.14908     0.08475     0.08371
 Zero-point vibrational energy    1043438.1 (Joules/Mol)
                                  249.38770 (Kcal/Mol)
 Warning -- explicit consideration of  57 degrees of freedom as
           vibrations may cause significant error
 Vibrational temperatures:     17.25    18.74    29.74    31.56    49.86
          (Kelvin)             55.78    74.62    74.95    82.55    96.18
                              102.70   121.58   128.44   137.22   142.90
                              157.68   175.81   208.83   216.20   227.69
                              236.00   252.63   265.26   273.77   291.19
                              319.80   324.70   341.19   353.75   368.60
                              385.84   395.94   406.13   407.31   432.16
                              451.50   474.01   485.77   496.19   501.82
                              566.32   582.72   602.67   623.37   635.74
                              655.29   670.61   683.25   716.31   725.72
                              745.36   779.26   788.17   796.21   829.85
                              845.13   888.33   925.28   928.32   938.10
                              977.22   987.83  1012.69  1059.22  1142.65
                             1159.84  1192.65  1208.01  1249.11  1281.28
                             1291.42  1298.88  1338.24  1356.42  1390.05
                             1414.42  1418.96  1445.18  1500.90  1535.02
                             1551.90  1554.22  1565.93  1568.74  1576.66
                             1584.34  1587.95  1592.52  1597.10  1610.02
                             1613.50  1631.57  1639.78  1646.05  1647.99
                             1648.61  1657.72  1662.03  1672.61  1682.95
                             1695.72  1705.20  1718.12  1756.31  1780.34
                             1806.29  1813.42  1828.67  1845.24  1867.10
                             1894.88  1899.32  1905.05  1916.55  1930.57
                             1957.05  1965.28  1976.84  1982.52  1991.35
                             2064.35  2068.08  2072.07  2075.35  2080.11
                             2092.17  2092.86  2094.81  2098.62  2103.28
                             2107.89  2128.06  2137.45  2139.58  2139.75
                             2293.31  2326.59  4188.57  4222.15  4223.80
                             4232.21  4234.95  4247.55  4253.39  4272.02
                             4282.30  4306.27  4328.08  4333.70  4338.61
                             4389.17  4393.93  4405.43  4408.30  4410.63
                             4426.90  4544.35  4545.24  4563.88

 Zero-point correction=                           0.397425 (Hartree/Particle)
 Thermal correction to Energy=                    0.431998
 Thermal correction to Enthalpy=                  0.432942
 Thermal correction to Gibbs Free Energy=         0.326355
 Sum of electronic and zero-point Energies=          -2297.834160
 Sum of electronic and thermal Energies=             -2297.799587
 Sum of electronic and thermal Enthalpies=           -2297.798643
 Sum of electronic and thermal Free Energies=        -2297.905230

                     E (Thermal)             CV                S
                      KCal/Mol        Cal/Mol-Kelvin    Cal/Mol-Kelvin
 Total                  271.083            124.842            224.333
 Electronic               0.000              0.000              0.000
 Translational            0.889              2.981             44.587
 Rotational               0.889              2.981             36.961
 Vibrational            269.306            118.880            142.785
 Vibration     1          0.593              1.987              7.651
 Vibration     2          0.593              1.987              7.486
 Vibration     3          0.593              1.986              6.568
 Vibration     4          0.593              1.985              6.451
 Vibration     5          0.594              1.983              5.543
 Vibration     6          0.594              1.981              5.321
 Vibration     7          0.596              1.977              4.745
 Vibration     8          0.596              1.977              4.736
 Vibration     9          0.596              1.975              4.546
 Vibration    10          0.598              1.970              4.244
 Vibration    11          0.598              1.968              4.115
 Vibration    12          0.601              1.960              3.784
 Vibration    13          0.602              1.957              3.676
 Vibration    14          0.603              1.952              3.547
 Vibration    15          0.604              1.950              3.468
 Vibration    16          0.606              1.942              3.276
 Vibration    17          0.610              1.931              3.065
 Vibration    18          0.617              1.908              2.735
 Vibration    19          0.618              1.902              2.669
 Vibration    20          0.621              1.893              2.571
 Vibration    21          0.623              1.887              2.503
 Vibration    22          0.628              1.872              2.375
 Vibration    23          0.631              1.861              2.284
 Vibration    24          0.634              1.853              2.225
 Vibration    25          0.639              1.837              2.111
 Vibration    26          0.648              1.807              1.940
 Vibration    27          0.650              1.802              1.913
 Vibration    28          0.656              1.784              1.824
 Vibration    29          0.660              1.770              1.760
 Vibration    30          0.666              1.752              1.688
 Vibration    31          0.673              1.732              1.608
 Vibration    32          0.677              1.719              1.563
 Vibration    33          0.681              1.706              1.520
 Vibration    34          0.682              1.705              1.515
 Vibration    35          0.693              1.673              1.415
 Vibration    36          0.702              1.647              1.342
 Vibration    37          0.712              1.617              1.263
 Vibration    38          0.718              1.600              1.223
 Vibration    39          0.723              1.586              1.190
 Vibration    40          0.726              1.578              1.172
 Vibration    41          0.761              1.484              0.986
 Vibration    42          0.770              1.459              0.944
 Vibration    43          0.782              1.429              0.896
 Vibration    44          0.794              1.398              0.848
 Vibration    45          0.802              1.379              0.821
 Vibration    46          0.814              1.349              0.779
 Vibration    47          0.823              1.325              0.749
 Vibration    48          0.832              1.306              0.724
 Vibration    49          0.853              1.255              0.663
 Vibration    50          0.860              1.240              0.647
 Vibration    51          0.873              1.210              0.615
 Vibration    52          0.897              1.158              0.562
 Vibration    53          0.903              1.144              0.549
 Vibration    54          0.909              1.132              0.537
 Vibration    55          0.933              1.082              0.491
 Vibration    56          0.945              1.059              0.472
 Vibration    57          0.977              0.995              0.421

                           ! Non-Optimized Parameters !
 Normal termination of Gaussian 16 at Sat Jun 15 08:44:25 2019.
