 Gaussian 16, Revision A.03,
 Gaussian 16:  AS64L-G16RevA.03 25-Dec-2016

 ----------------------------------------------------------------------
 #p opt freq=noraman 6-31g(d) scrf=(solvent=tetrahydrofuran,pcm) pop=no
 ne b97d extrabasis
 ----------------------------------------------------------------------

 -----
 title
 -----
 Symbolic Z-matrix:
 Charge =  0 Multiplicity = 1

 SCF Done:  E(RB97D) =  -2296.95591698     A.U. after   15 cycles
 SCF Done:  E(RB97D) =  -2296.95591698     A.U. after    6 cycles
 Optimization completed.
    -- Stationary point found.
 Normal termination of Gaussian 16 at Sat Jun 15 07:33:46 2019.

 -----------------------------------------------------------------
 #P Geom=AllCheck Guess=TCheck SCRF=Check GenChk RB97D/ChkBas Freq
 -----------------------------------------------------------------

 Structure from the checkpoint file:  "/scratch/users/ekwan/clay_new-glu_gluC6-bisCF3-sm-b97d-custom-pcm_thf/Gau-32136.chk"
 -----
 title
 -----
 Charge =  0 Multiplicity = 1

                         Standard orientation:
 ---------------------------------------------------------------------
 Center     Atomic      Atomic             Coordinates (Angstroms)
 Number     Number       Type             X           Y           Z
 ---------------------------------------------------------------------
      1          6           0       -3.305353    0.607457   -0.039940
      2          6           0       -3.199167   -0.816185    0.541202
      3          6           0       -1.738119   -1.337027    0.491694
      4          6           0       -0.836385    0.895157    0.512971
      5          6           0       -2.240033    1.519208    0.592078
      6          1           0       -1.624912   -2.287689    1.024866
      7          1           0       -3.450401   -0.762279    1.619216
      8          1           0       -3.134404    0.572404   -1.130224
      9          1           0       -0.536264    0.837792   -0.545459
     10          1           0       -2.493539    1.675924    1.652901
     11          8           0       -0.829805   -0.452776    1.071004
     12          8           0       -1.443693   -1.574180   -0.939676
     13          8           0       -4.112401   -1.661525   -0.135215
     14          8           0       -4.577879    1.180804    0.255115
     15          8           0       -2.181782    2.760154   -0.110994
     16          6           0        0.223435    1.725701    1.251893
     17          1           0        0.428116    2.608378    0.632876
     18          1           0        1.146417    1.125604    1.338676
     19          8           0       -0.171516    2.221823    2.526348
     20         16           0       -0.137929   -2.527875   -1.315208
     21          8           0       -0.248606   -2.714941   -2.770049
     22          8           0       -0.084594   -3.678848   -0.393370
     23          6           0        1.247321   -1.425668   -0.959464
     24          6           0        1.440072   -0.320165   -1.793907
     25          6           0        2.020694   -1.643597    0.184970
     26          6           0        2.441481    0.602395   -1.457064
     27          1           0        0.817607   -0.168267   -2.674122
     28          6           0        3.030108   -0.720767    0.488784
     29          1           0        1.832781   -2.501459    0.826499
     30          6           0        3.238264    0.405996   -0.321645
     31          1           0        4.007716    1.130153   -0.062398
     32          6           0       -4.350060   -2.904728    0.537188
     33          1           0       -3.463091   -3.561946    0.506045
     34          1           0       -4.637982   -2.732988    1.591245
     35          1           0       -5.176472   -3.391696    0.003153
     36          6           0       -5.539666    1.045023   -0.797418
     37          1           0       -6.435917    1.588909   -0.466188
     38          1           0       -5.163444    1.498129   -1.734113
     39          1           0       -5.789550   -0.011764   -0.981782
     40          6           0       -2.719268    3.859518    0.634164
     41          1           0       -2.596487    4.751001    0.002502
     42          1           0       -3.788829    3.701379    0.852073
     43          1           0       -2.165558    3.996244    1.580286
     44          6           0       -0.192293    1.218449    3.548884
     45          1           0       -0.310633    1.750243    4.503786
     46          1           0        0.753995    0.646569    3.557017
     47          1           0       -1.028524    0.512229    3.412883
     48          6           0        2.550520    1.884149   -2.257280
     49          9           0        2.317885    1.677281   -3.578833
     50          9           0        3.767982    2.468927   -2.132712
     51          9           0        1.617832    2.784379   -1.821144
     52          6           0        3.811862   -0.857253    1.779399
     53          9           0        3.226026   -0.115062    2.767915
     54          9           0        5.086633   -0.408232    1.647932
     55          9           0        3.863414   -2.140730    2.215644
 ---------------------------------------------------------------------

 SCF Done:  E(RB97D) =  -2296.95591698     A.U. after    1 cycles

 Isotropic polarizability for W=    0.000000      299.11 Bohr**3.
 End of Minotr F.D. properties file   721 does not exist.

                      1                      2                      3
                      A                      A                      A
 Frequencies --     15.6061                21.5624                22.0295
 Red. masses --      6.9978                17.6525                11.8083
 Frc consts  --      0.0010                 0.0048                 0.0034
 IR Inten    --      0.5031                 0.0392                 0.0916

                      4                      5                      6
                      A                      A                      A
 Frequencies --     29.9045                31.7550                45.0842
 Red. masses --      8.0868                 5.9956                 4.8729
 Frc consts  --      0.0043                 0.0036                 0.0058
 IR Inten    --      0.1200                 0.4414                 1.3053

                      7                      8                      9
                      A                      A                      A
 Frequencies --     49.6375                58.4751                60.3046
 Red. masses --      3.8574                 3.3299                 3.5377
 Frc consts  --      0.0056                 0.0067                 0.0076
 IR Inten    --      0.2537                 1.5371                 0.9647

                     10                     11                     12
                      A                      A                      A
 Frequencies --     61.5277                70.9491                83.2652
 Red. masses --      3.3969                 3.4013                 2.6136
 Frc consts  --      0.0076                 0.0101                 0.0107
 IR Inten    --      6.6883                 1.6339                 3.5915

                     13                     14                     15
                      A                      A                      A
 Frequencies --     93.5590               100.4949               106.8673
 Red. masses --      3.2250                12.1188                11.3834
 Frc consts  --      0.0166                 0.0721                 0.0766
 IR Inten    --      1.2369                 3.2765                 3.6563

                     16                     17                     18
                      A                      A                      A
 Frequencies --    118.0819               130.2808               149.4770
 Red. masses --      9.8024                 2.4438                 7.2921
 Frc consts  --      0.0805                 0.0244                 0.0960
 IR Inten    --      0.7960                 3.1860                 0.8862

                     19                     20                     21
                      A                      A                      A
 Frequencies --    157.4592               168.2738               174.4311
 Red. masses --      2.8553                 2.0400                 2.2509
 Frc consts  --      0.0417                 0.0340                 0.0404
 IR Inten    --      1.1908                 0.2531                 1.7283

                     22                     23                     24
                      A                      A                      A
 Frequencies --    183.2183               192.3504               198.4085
 Red. masses --      2.2792                 2.2134                 2.0824
 Frc consts  --      0.0451                 0.0483                 0.0483
 IR Inten    --      0.5629                 6.4935                 3.8793

                     25                     26                     27
                      A                      A                      A
 Frequencies --    214.4909               237.2800               239.2901
 Red. masses --      1.9230                 5.2594                 1.9378
 Frc consts  --      0.0521                 0.1745                 0.0654
 IR Inten    --      1.3293                 2.4538                 3.4988

                     28                     29                     30
                      A                      A                      A
 Frequencies --    242.5709               253.7173               270.8896
 Red. masses --     11.9442                 3.3422                 3.3100
 Frc consts  --      0.4141                 0.1268                 0.1431
 IR Inten    --      0.6447                 9.1138                 9.9922

                     31                     32                     33
                      A                      A                      A
 Frequencies --    277.6281               285.5065               287.7649
 Red. masses --      9.8312                10.5169                 5.9693
 Frc consts  --      0.4465                 0.5051                 0.2912
 IR Inten    --      3.8223                 5.2258                11.2190

                     34                     35                     36
                      A                      A                      A
 Frequencies --    292.1833               303.9190               324.0036
 Red. masses --      5.1208                 5.4052                 4.3899
 Frc consts  --      0.2576                 0.2942                 0.2715
 IR Inten    --     10.0903                 0.6364                 2.8185

                     37                     38                     39
                      A                      A                      A
 Frequencies --    336.3788               345.5174               352.2452
 Red. masses --      7.6501                 7.1559                 4.8560
 Frc consts  --      0.5100                 0.5033                 0.3550
 IR Inten    --      2.2648                14.7511                10.0550

                     40                     41                     42
                      A                      A                      A
 Frequencies --    353.4849               396.7405               410.6863
 Red. masses --      6.6542                10.6599                 9.3542
 Frc consts  --      0.4899                 0.9886                 0.9296
 IR Inten    --     14.8376                13.5546                 7.9165

                     43                     44                     45
                      A                      A                      A
 Frequencies --    430.8376               438.0365               450.1372
 Red. masses --      2.5188                 5.7706                 9.0851
 Frc consts  --      0.2755                 0.6524                 1.0846
 IR Inten    --      9.5820                 7.2963                36.7307

                     46                     47                     48
                      A                      A                      A
 Frequencies --    463.3900               470.0376               480.3294
 Red. masses --      4.7680                 5.4207                11.9993
 Frc consts  --      0.6032                 0.7056                 1.6311
 IR Inten    --      4.9774                 8.3015                 0.8874

                     49                     50                     51
                      A                      A                      A
 Frequencies --    504.3129               512.2204               528.4263
 Red. masses --     10.4522                 6.8189                 4.0970
 Frc consts  --      1.5662                 1.0541                 0.6740
 IR Inten    --     47.6757                10.5407                59.2943

                     52                     53                     54
                      A                      A                      A
 Frequencies --    544.7836               553.3188               561.8493
 Red. masses --     11.1604                 8.0429                 4.0920
 Frc consts  --      1.9515                 1.4508                 0.7611
 IR Inten    --     24.8270               159.5113                25.9458

                     55                     56                     57
                      A                      A                      A
 Frequencies --    580.5795               589.3577               624.6705
 Red. masses --      6.2203                 8.3022                 5.8777
 Frc consts  --      1.2353                 1.6990                 1.3513
 IR Inten    --     29.8734                 3.3522                 3.6165

                     58                     59                     60
                      A                      A                      A
 Frequencies --    641.7611               648.5465               655.2871
 Red. masses --      8.0269                 7.7820                13.2380
 Frc consts  --      1.9478                 1.9285                 3.3492
 IR Inten    --    148.8243                 9.8920                42.6367

                     61                     62                     63
                      A                      A                      A
 Frequencies --    686.5184               686.6452               698.1095
 Red. masses --      2.8235                11.2677                 6.8748
 Frc consts  --      0.7840                 3.1301                 1.9740
 IR Inten    --     16.5372                 1.9057               433.3817

                     64                     65                     66
                      A                      A                      A
 Frequencies --    726.7849               784.1636               797.9148
 Red. masses --      5.4428                 4.7102                 6.7470
 Frc consts  --      1.6939                 1.7065                 2.5309
 IR Inten    --    122.9250                18.1048                22.4959

                     67                     68                     69
                      A                      A                      A
 Frequencies --    821.9789               833.4018               881.0126
 Red. masses --     11.9186                 4.1501                 1.5344
 Frc consts  --      4.7446                 1.6983                 0.7017
 IR Inten    --     35.0050                40.0168                70.2273

                     70                     71                     72
                      A                      A                      A
 Frequencies --    885.7846               911.2092               921.1251
 Red. masses --      3.1898                 1.3829                 1.3793
 Frc consts  --      1.4746                 0.6765                 0.6895
 IR Inten    --     34.9286                 0.4507                12.3027

                     73                     74                     75
                      A                      A                      A
 Frequencies --    924.0437               936.7397               956.9680
 Red. masses --      5.0552                 4.4006                 4.0055
 Frc consts  --      2.5432                 2.2751                 2.1613
 IR Inten    --      9.1712                36.7347                49.7918

                     76                     77                     78
                      A                      A                      A
 Frequencies --    975.0821               984.8284              1004.0407
 Red. masses --      4.7196                 6.4074                 3.7264
 Frc consts  --      2.6439                 3.6614                 2.2133
 IR Inten    --     18.6477                 0.3218               127.5100

                     79                     80                     81
                      A                      A                      A
 Frequencies --   1041.7016              1061.8790              1076.4953
 Red. masses --      3.3067                11.8826                 9.2152
 Frc consts  --      2.1141                 7.8943                 6.2919
 IR Inten    --     26.4889                27.5868               404.7923

                     82                     83                     84
                      A                      A                      A
 Frequencies --   1077.8364              1080.8215              1083.6136
 Red. masses --      4.9552                 4.8493                 3.8500
 Frc consts  --      3.3917                 3.3376                 2.6636
 IR Inten    --    260.7894               329.7989                38.5454

                     85                     86                     87
                      A                      A                      A
 Frequencies --   1095.3624              1097.4914              1101.5685
 Red. masses --      8.1515                 4.4965                 4.5042
 Frc consts  --      5.7624                 3.1910                 3.2203
 IR Inten    --      2.4028                90.0517               220.5483

                     88                     89                     90
                      A                      A                      A
 Frequencies --   1103.3195              1108.4730              1112.3998
 Red. masses --      7.9048                 3.0217                 2.8654
 Frc consts  --      5.6695                 2.1875                 2.0891
 IR Inten    --    632.1494               171.4152               279.0878

                     91                     92                     93
                      A                      A                      A
 Frequencies --   1117.3843              1130.2478              1138.2526
 Red. masses --      4.3709                 4.4484                 3.0361
 Frc consts  --      3.2153                 3.3481                 2.3176
 IR Inten    --      7.5555               148.4993                58.5286

                     94                     95                     96
                      A                      A                      A
 Frequencies --   1156.1678              1157.6067              1158.6438
 Red. masses --      6.8548                 1.2701                 1.2576
 Frc consts  --      5.3986                 1.0028                 0.9947
 IR Inten    --    216.4894                 1.7847                 0.3380

                     97                     98                     99
                      A                      A                      A
 Frequencies --   1162.7727              1164.8594              1166.0161
 Red. masses --      1.2812                 3.3342                 1.2879
 Frc consts  --      1.0206                 2.6655                 1.0317
 IR Inten    --      3.6327               192.3185                 1.1191

                    100                    101                    102
                      A                      A                      A
 Frequencies --   1188.9723              1195.1538              1200.1397
 Red. masses --      1.3225                 1.4003                 1.4797
 Frc consts  --      1.1015                 1.1784                 1.2557
 IR Inten    --     16.7074                15.9316                 5.9594

                    103                    104                    105
                      A                      A                      A
 Frequencies --   1207.8690              1235.6343              1241.6479
 Red. masses --      1.5471                 1.6655                 3.1363
 Frc consts  --      1.3298                 1.4982                 2.8489
 IR Inten    --     11.0600                14.2034               790.2350

                    106                    107                    108
                      A                      A                      A
 Frequencies --   1259.2672              1272.5640              1297.1845
 Red. masses --     12.7475                 1.4225                 1.3543
 Frc consts  --     11.9100                 1.3573                 1.3427
 IR Inten    --    204.9802                 2.0893                 9.3543

                    109                    110                    111
                      A                      A                      A
 Frequencies --   1297.9744              1315.5395              1319.4681
 Red. masses --      1.3636                 1.3870                 3.2497
 Frc consts  --      1.3536                 1.4143                 3.3335
 IR Inten    --      6.2168                56.3335               179.6100

                    112                    113                    114
                      A                      A                      A
 Frequencies --   1339.8828              1343.3199              1356.1420
 Red. masses --      1.2051                 1.1702                 1.2854
 Frc consts  --      1.2747                 1.2442                 1.3928
 IR Inten    --     18.0774                 9.7327                 1.3065

                    115                    116                    117
                      A                      A                      A
 Frequencies --   1362.5412              1366.2132              1381.7861
 Red. masses --      1.4666                 3.3932                 1.2655
 Frc consts  --      1.6042                 3.7316                 1.4236
 IR Inten    --      7.9892                 4.5005                 9.4426

                    118                    119                    120
                      A                      A                      A
 Frequencies --   1387.4634              1400.1514              1405.9675
 Red. masses --      1.3483                 1.2932                 1.2793
 Frc consts  --      1.5292                 1.4937                 1.4899
 IR Inten    --     18.1742                19.5784                17.9018

                    121                    122                    123
                      A                      A                      A
 Frequencies --   1445.5755              1456.6562              1457.1886
 Red. masses --      3.2533                 1.9475                 1.4814
 Frc consts  --      4.0055                 2.4347                 1.8534
 IR Inten    --      9.4396                 1.5573                 2.9418

                    124                    125                    126
                      A                      A                      A
 Frequencies --   1459.2701              1460.6707              1462.4904
 Red. masses --      1.1407                 1.1225                 1.1179
 Frc consts  --      1.4312                 1.4110                 1.4088
 IR Inten    --      1.1260                 2.1969                 5.5697

                    127                    128                    129
                      A                      A                      A
 Frequencies --   1465.5508              1469.2811              1470.8478
 Red. masses --      1.0527                 1.0605                 1.0546
 Frc consts  --      1.3321                 1.3489                 1.3442
 IR Inten    --      1.7926                 4.7459                 8.2099

                    130                    131                    132
                      A                      A                      A
 Frequencies --   1478.1045              1478.7640              1489.3192
 Red. masses --      1.1046                 1.1156                 1.0513
 Frc consts  --      1.4219                 1.4374                 1.3739
 IR Inten    --      5.7017                 1.6176                10.5125

                    133                    134                    135
                      A                      A                      A
 Frequencies --   1494.9412              1495.8759              1497.0365
 Red. masses --      1.0571                 1.0536                 1.0639
 Frc consts  --      1.3919                 1.3890                 1.4047
 IR Inten    --      6.6300                 9.0795                 6.9925

                    136                    137                    138
                      A                      A                      A
 Frequencies --   1596.4279              1621.9741              2919.5875
 Red. masses --      5.6096                 5.4712                 1.0660
 Frc consts  --      8.4233                 8.4806                 5.3536
 IR Inten    --      7.2644                11.4359                37.6488

                    139                    140                    141
                      A                      A                      A
 Frequencies --   2923.4315              2924.6130              2931.8040
 Red. masses --      1.0456                 1.0427                 1.0322
 Frc consts  --      5.2649                 5.2545                 5.2276
 IR Inten    --    142.3290                34.3656                66.0160

                    142                    143                    144
                      A                      A                      A
 Frequencies --   2933.4416              2969.1922              2972.1522
 Red. masses --      1.0313                 1.0841                 1.0647
 Frc consts  --      5.2288                 5.6312                 5.5415
 IR Inten    --     84.4087                24.0708                46.0896

                    145                    146                    147
                      A                      A                      A
 Frequencies --   2992.2253              2993.6464              3004.9412
 Red. masses --      1.0835                 1.1065                 1.0862
 Frc consts  --      5.7158                 5.8424                 5.7786
 IR Inten    --      7.5488                73.6405                60.4037

                    148                    149                    150
                      A                      A                      A
 Frequencies --   3007.9354              3013.7337              3014.5119
 Red. masses --      1.1031                 1.1059                 1.0975
 Frc consts  --      5.8802                 5.9180                 5.8760
 IR Inten    --     76.0371                76.9531                43.7732

                    151                    152                    153
                      A                      A                      A
 Frequencies --   3060.2080              3062.1463              3063.5899
 Red. masses --      1.1047                 1.1050                 1.1064
 Frc consts  --      6.0953                 6.1045                 6.1183
 IR Inten    --     54.8187                48.7918                45.1679

                    154                    155                    156
                      A                      A                      A
 Frequencies --   3072.0192              3074.4702              3076.3919
 Red. masses --      1.0897                 1.0996                 1.1006
 Frc consts  --      6.0589                 6.1241                 6.1371
 IR Inten    --     28.1816                15.4821                30.2183

                    157                    158                    159
                      A                      A                      A
 Frequencies --   3175.0938              3182.2440              3190.0343
 Red. masses --      1.0924                 1.0921                 1.0921
 Frc consts  --      6.4885                 6.5158                 6.5480
 IR Inten    --      2.8673                 0.2159                 4.6121

 - Thermochemistry -
 -------------------
 Temperature   298.150 Kelvin.  Pressure   1.00000 Atm.
 Atom     1 has atomic number  6 and mass  12.00000

 Molecular mass:   512.09396 amu.
 Principal axes and moments of inertia in atomic units:
                           1         2         3
     Eigenvalues --  ******************************
           X            0.99995  -0.00717  -0.00623
           Y            0.00760   0.99733   0.07258
           Z            0.00569  -0.07262   0.99734
 This molecule is an asymmetric top.
 Rotational symmetry number  1.
 Warning -- assumption of classical behavior for rotation
           may cause significant error
 Rotational temperatures (Kelvin)      0.00721     0.00441     0.00406
 Rotational constants (GHZ):           0.15018     0.09182     0.08462
 Zero-point vibrational energy    1049524.0 (Joules/Mol)
                                  250.84227 (Kcal/Mol)
 Warning -- explicit consideration of  56 degrees of freedom as
           vibrations may cause significant error
 Vibrational temperatures:     22.45    31.02    31.70    43.03    45.69
          (Kelvin)             64.87    71.42    84.13    86.76    88.52
                              102.08   119.80   134.61   144.59   153.76
                              169.89   187.44   215.06   226.55   242.11
                              250.97   263.61   276.75   285.47   308.60
                              341.39   344.29   349.01   365.04   389.75
                              399.44   410.78   414.03   420.39   437.27
                              466.17   483.97   497.12   506.80   508.59
                              570.82   590.89   619.88   630.24   647.65
                              666.71   676.28   691.09   725.59   736.97
                              760.29   783.82   796.10   808.38   835.32
                              847.95   898.76   923.35   933.11   942.81
                              987.75   987.93  1004.42  1045.68  1128.24
                             1148.02  1182.64  1199.08  1267.58  1274.45
                             1311.03  1325.29  1329.49  1347.76  1376.86
                             1402.93  1416.95  1444.59  1498.78  1527.81
                             1548.84  1550.77  1555.06  1559.08  1575.98
                             1579.05  1584.91  1587.43  1594.85  1600.50
                             1607.67  1626.17  1637.69  1663.47  1665.54
                             1667.03  1672.97  1675.97  1677.64  1710.67
                             1719.56  1726.73  1737.85  1777.80  1786.45
                             1811.80  1830.94  1866.36  1867.50  1892.77
                             1898.42  1927.79  1932.74  1951.19  1960.39
                             1965.68  1988.08  1996.25  2014.51  2022.87
                             2079.86  2095.80  2096.57  2099.56  2101.58
                             2104.20  2108.60  2113.97  2116.22  2126.66
                             2127.61  2142.80  2150.89  2152.23  2153.90
                             2296.90  2333.66  4200.64  4206.17  4207.87
                             4218.21  4220.57  4272.01  4276.26  4305.14
                             4307.19  4323.44  4327.75  4336.09  4337.21
                             4402.96  4405.75  4407.82  4419.95  4423.48
                             4426.24  4568.25  4578.54  4589.75

 Zero-point correction=                           0.399743 (Hartree/Particle)
 Thermal correction to Energy=                    0.433820
 Thermal correction to Enthalpy=                  0.434765
 Thermal correction to Gibbs Free Energy=         0.330542
 Sum of electronic and zero-point Energies=          -2296.556174
 Sum of electronic and thermal Energies=             -2296.522097
 Sum of electronic and thermal Enthalpies=           -2296.521152
 Sum of electronic and thermal Free Energies=        -2296.625375

                     E (Thermal)             CV                S
                      KCal/Mol        Cal/Mol-Kelvin    Cal/Mol-Kelvin
 Total                  272.226            124.074            219.354
 Electronic               0.000              0.000              0.000
 Translational            0.889              2.981             44.587
 Rotational               0.889              2.981             36.864
 Vibrational            270.449            118.112            137.904
 Vibration     1          0.593              1.986              7.127
 Vibration     2          0.593              1.985              6.485
 Vibration     3          0.593              1.985              6.442
 Vibration     4          0.594              1.984              5.836
 Vibration     5          0.594              1.983              5.717
 Vibration     6          0.595              1.979              5.022
 Vibration     7          0.595              1.978              4.832
 Vibration     8          0.596              1.974              4.508
 Vibration     9          0.597              1.973              4.447
 Vibration    10          0.597              1.973              4.408
 Vibration    11          0.598              1.968              4.127
 Vibration    12          0.600              1.961              3.812
 Vibration    13          0.603              1.954              3.584
 Vibration    14          0.604              1.949              3.445
 Vibration    15          0.606              1.944              3.325
 Vibration    16          0.608              1.934              3.132
 Vibration    17          0.612              1.923              2.942
 Vibration    18          0.618              1.903              2.679
 Vibration    19          0.621              1.894              2.580
 Vibration    20          0.625              1.882              2.455
 Vibration    21          0.627              1.874              2.387
 Vibration    22          0.631              1.863              2.295
 Vibration    23          0.634              1.850              2.205
 Vibration    24          0.637              1.842              2.148
 Vibration    25          0.644              1.819              2.005
 Vibration    26          0.656              1.784              1.823
 Vibration    27          0.657              1.780              1.808
 Vibration    28          0.659              1.775              1.784
 Vibration    29          0.665              1.757              1.705
 Vibration    30          0.675              1.727              1.591
 Vibration    31          0.679              1.715              1.548
 Vibration    32          0.683              1.701              1.500
 Vibration    33          0.685              1.696              1.487
 Vibration    34          0.688              1.688              1.461
 Vibration    35          0.695              1.666              1.395
 Vibration    36          0.709              1.627              1.290
 Vibration    37          0.717              1.603              1.229
 Vibration    38          0.724              1.584              1.187
 Vibration    39          0.729              1.571              1.156
 Vibration    40          0.730              1.568              1.151
 Vibration    41          0.763              1.477              0.975
 Vibration    42          0.775              1.447              0.924
 Vibration    43          0.792              1.403              0.856
 Vibration    44          0.798              1.387              0.833
 Vibration    45          0.809              1.361              0.795
 Vibration    46          0.821              1.331              0.756
 Vibration    47          0.827              1.317              0.737
 Vibration    48          0.837              1.294              0.709
 Vibration    49          0.860              1.240              0.647
 Vibration    50          0.867              1.223              0.628
 Vibration    51          0.883              1.187              0.591
 Vibration    52          0.900              1.151              0.555
 Vibration    53          0.909              1.132              0.537
 Vibration    54          0.918              1.114              0.520
 Vibration    55          0.937              1.073              0.484
 Vibration    56          0.947              1.054              0.468

                           ! Non-Optimized Parameters !
 Normal termination of Gaussian 16 at Sat Jun 15 08:11:08 2019.
