 Gaussian 16, Revision A.03,
 Gaussian 16:  AS64L-G16RevA.03 25-Dec-2016

 ----------------------------------------------------------------------
 #p opt freq=noraman 6-31g(d) scrf=(solvent=tetrahydrofuran,pcm) pop=no
 ne empiricaldispersion=gd3bj pbe1pbe extrabasis
 ----------------------------------------------------------------------

 -----
 title
 -----
 Symbolic Z-matrix:
 Charge =  0 Multiplicity = 1

 SCF Done:  E(RPBE1PBE) =  -2296.02735360     A.U. after   13 cycles
 Optimization completed.
    -- Stationary point found.
 Normal termination of Gaussian 16 at Sat Jun 15 09:15:48 2019.

 --------------------------------------------------------------------
 #P Geom=AllCheck Guess=TCheck SCRF=Check GenChk RPBE1PBE/ChkBas Freq
 --------------------------------------------------------------------

 Structure from the checkpoint file:  "/scratch/users/ekwan/clay_new-glu_gluC6-bisCF3-sm-pbe0_d3bj-custom-pcm_thf/Gau-11914.chk"
 -----
 title
 -----
 Charge =  0 Multiplicity = 1

                         Standard orientation:
 ---------------------------------------------------------------------
 Center     Atomic      Atomic             Coordinates (Angstroms)
 Number     Number       Type             X           Y           Z
 ---------------------------------------------------------------------
      1          6           0        3.380723    0.282142    0.652815
      2          6           0        3.315062   -0.446050   -0.684734
      3          6           0        1.863017   -0.707966   -1.096865
      4          6           0        1.047678    1.112156    0.191666
      5          6           0        2.454958    1.490212    0.639694
      6          1           0        1.789280   -1.109646   -2.108890
      7          1           0        3.731038    0.223783   -1.455861
      8          1           0        3.054816   -0.397413    1.453873
      9          1           0        0.601191    0.447656    0.945105
     10          1           0        2.853563    2.232839   -0.064380
     11          8           0        1.082739    0.430062   -1.070005
     12          8           0        1.366276   -1.711672   -0.175712
     13          8           0        4.071951   -1.619747   -0.597109
     14          8           0        4.686564    0.746831    0.903319
     15          8           0        2.353633    2.035125    1.935074
     16          6           0        0.144579    2.327137    0.058014
     17          1           0       -0.052667    2.693656    1.069088
     18          1           0       -0.809251    2.019769   -0.392976
     19          8           0        0.705428    3.404731   -0.649220
     20         16           0        0.083587   -2.591189   -0.612888
     21          8           0        0.067621   -3.694566    0.328778
     22          8           0        0.138882   -2.821471   -2.049133
     23          6           0       -1.287381   -1.521769   -0.263331
     24          6           0       -1.755472   -1.440156    1.042337
     25          6           0       -1.831248   -0.764890   -1.293676
     26          6           0       -2.803222   -0.567048    1.316410
     27          1           0       -1.311999   -2.044712    1.826301
     28          6           0       -2.878017    0.099098   -0.996078
     29          1           0       -1.444975   -0.850228   -2.302773
     30          6           0       -3.365444    0.203213    0.303851
     31          1           0       -4.179891    0.883987    0.526881
     32          6           0        4.390985   -2.200665   -1.845270
     33          1           0        3.511161   -2.637791   -2.335375
     34          1           0        4.847832   -1.463208   -2.519580
     35          1           0        5.109284   -2.997922   -1.645575
     36          6           0        5.456031   -0.097662    1.734419
     37          1           0        6.421823    0.394853    1.872050
     38          1           0        4.979551   -0.225844    2.716677
     39          1           0        5.609887   -1.081671    1.279097
     40          6           0        3.034390    3.264053    2.089201
     41          1           0        2.877566    3.583484    3.122491
     42          1           0        4.108438    3.147632    1.904019
     43          1           0        2.628038    4.026556    1.411027
     44          6           0        0.663548    3.264011   -2.054749
     45          1           0        0.926317    4.237128   -2.477143
     46          1           0       -0.344809    2.986408   -2.392086
     47          1           0        1.371750    2.509897   -2.416601
     48          6           0       -3.365131   -0.495045    2.709755
     49          9           0       -2.428730   -0.764026    3.629169
     50          9           0       -4.358347   -1.381160    2.879066
     51          9           0       -3.865406    0.719821    2.972966
     52          6           0       -3.440181    0.988970   -2.068959
     53          9           0       -2.858726    2.204296   -2.039424
     54          9           0       -4.755330    1.181677   -1.909498
     55          9           0       -3.238944    0.482392   -3.290510
 ---------------------------------------------------------------------

 SCF Done:  E(RPBE1PBE) =  -2296.02735360     A.U. after    1 cycles

 Isotropic polarizability for W=    0.000000      277.98 Bohr**3.
 End of Minotr F.D. properties file   721 does not exist.

                      1                      2                      3
                      A                      A                      A
 Frequencies --     14.3566                17.5588                22.3142
 Red. masses --      9.9449                 7.0759                18.2489
 Frc consts  --      0.0012                 0.0013                 0.0054
 IR Inten    --      0.1274                 0.3204                 0.0091

                      4                      5                      6
                      A                      A                      A
 Frequencies --     24.7063                34.7624                43.4902
 Red. masses --     10.6188                 4.1604                 6.6190
 Frc consts  --      0.0038                 0.0030                 0.0074
 IR Inten    --      0.1100                 0.6029                 0.4506

                      7                      8                      9
                      A                      A                      A
 Frequencies --     50.7830                53.0174                66.2198
 Red. masses --      3.1655                 4.2761                 4.0158
 Frc consts  --      0.0048                 0.0071                 0.0104
 IR Inten    --      2.7256                 0.5688                 0.7192

                     10                     11                     12
                      A                      A                      A
 Frequencies --     68.7544                75.3724                85.4825
 Red. masses --      3.9231                 2.8449                 2.8073
 Frc consts  --      0.0109                 0.0095                 0.0121
 IR Inten    --      1.5278                 4.5522                 5.8713

                     13                     14                     15
                      A                      A                      A
 Frequencies --     90.9081                99.4817               103.2151
 Red. masses --      3.5779                12.0648                 8.5860
 Frc consts  --      0.0174                 0.0703                 0.0539
 IR Inten    --      3.5155                 3.3996                 3.3049

                     16                     17                     18
                      A                      A                      A
 Frequencies --    114.1232               123.1453               151.7746
 Red. masses --      7.3436                 2.4367                 7.5816
 Frc consts  --      0.0564                 0.0218                 0.1029
 IR Inten    --      0.7657                 3.5933                 0.4305

                     19                     20                     21
                      A                      A                      A
 Frequencies --    156.5324               165.3010               170.9271
 Red. masses --      1.3937                 3.8542                 2.8949
 Frc consts  --      0.0201                 0.0620                 0.0498
 IR Inten    --      0.5211                 1.0183                 1.6579

                     22                     23                     24
                      A                      A                      A
 Frequencies --    183.3276               192.2348               198.8634
 Red. masses --      1.7961                 2.1909                 2.0851
 Frc consts  --      0.0356                 0.0477                 0.0486
 IR Inten    --      0.2552                 5.1359                 4.9113

                     25                     26                     27
                      A                      A                      A
 Frequencies --    209.4218               230.3863               235.5100
 Red. masses --      1.6655                 2.2810                 8.2561
 Frc consts  --      0.0430                 0.0713                 0.2698
 IR Inten    --      0.4739                 8.0511                 1.3034

                     28                     29                     30
                      A                      A                      A
 Frequencies --    248.2808               258.0443               264.5982
 Red. masses --      3.8713                 6.2571                 3.4483
 Frc consts  --      0.1406                 0.2455                 0.1422
 IR Inten    --      4.8614                 9.2662                11.0341

                     31                     32                     33
                      A                      A                      A
 Frequencies --    282.4471               289.8768               294.4418
 Red. masses --     11.8800                 4.7972                 8.2532
 Frc consts  --      0.5584                 0.2375                 0.4216
 IR Inten    --      4.0150                 9.9598                 7.3190

                     34                     35                     36
                      A                      A                      A
 Frequencies --    296.7325               315.6449               328.5385
 Red. masses --      8.8142                 5.4174                 4.0657
 Frc consts  --      0.4573                 0.3180                 0.2586
 IR Inten    --      7.4383                 0.2675                 4.3163

                     37                     38                     39
                      A                      A                      A
 Frequencies --    346.1856               355.1450               360.7696
 Red. masses --      7.4153                 6.0932                 4.9209
 Frc consts  --      0.5236                 0.4528                 0.3774
 IR Inten    --      1.1868                 3.2899                 7.0629

                     40                     41                     42
                      A                      A                      A
 Frequencies --    371.9210               415.2875               425.1933
 Red. masses --      9.3575                10.1573                 8.8729
 Frc consts  --      0.7626                 1.0321                 0.9451
 IR Inten    --     17.1140                16.3447                 6.7118

                     43                     44                     45
                      A                      A                      A
 Frequencies --    437.9575               456.2763               470.0038
 Red. masses --      2.0987                 5.9094                 8.9441
 Frc consts  --      0.2372                 0.7249                 1.1641
 IR Inten    --      8.0353                10.3564                23.8599

                     46                     47                     48
                      A                      A                      A
 Frequencies --    477.0359               494.8115               502.3114
 Red. masses --      4.0816                 7.7254                11.8521
 Frc consts  --      0.5472                 1.1144                 1.7619
 IR Inten    --      7.6491                15.0540                 1.4624

                     49                     50                     51
                      A                      A                      A
 Frequencies --    526.8851               533.9310               546.8602
 Red. masses --      5.0887                 7.8127                 5.2643
 Frc consts  --      0.8323                 1.3123                 0.9276
 IR Inten    --     45.0110                26.9452                14.7684

                     52                     53                     54
                      A                      A                      A
 Frequencies --    573.2976               575.2155               585.1036
 Red. masses --      6.7979                 5.3298                 9.7793
 Frc consts  --      1.3164                 1.0390                 1.9725
 IR Inten    --     42.8377                22.6029               231.9026

                     55                     56                     57
                      A                      A                      A
 Frequencies --    611.4386               618.6815               649.7183
 Red. masses --      6.6872                 8.1556                 5.7107
 Frc consts  --      1.4730                 1.8392                 1.4203
 IR Inten    --     34.7820                 3.5136                12.2916

                     58                     59                     60
                      A                      A                      A
 Frequencies --    680.6109               685.5445               691.4806
 Red. masses --      7.7637                12.9002                 5.8205
 Frc consts  --      2.1189                 3.5720                 1.6397
 IR Inten    --      1.3138                59.4711                32.9857

                     61                     62                     63
                      A                      A                      A
 Frequencies --    713.0897               726.7090               747.5342
 Red. masses --      2.4999                10.3947                 5.2780
 Frc consts  --      0.7490                 3.2343                 1.7377
 IR Inten    --     32.1718                 1.9563                53.1162

                     64                     65                     66
                      A                      A                      A
 Frequencies --    828.6045               854.9378               861.9282
 Red. masses --      6.8922                 3.6506                11.9603
 Frc consts  --      2.7880                 1.5721                 5.2352
 IR Inten    --    281.0834                48.7447               306.9599

                     67                     68                     69
                      A                      A                      A
 Frequencies --    874.0615               901.5460               923.9277
 Red. masses --     11.9681                 3.9829                 1.6089
 Frc consts  --      5.3871                 1.9073                 0.8092
 IR Inten    --     21.8594                89.6331                67.9547

                     70                     71                     72
                      A                      A                      A
 Frequencies --    948.5052               951.9065               959.4993
 Red. masses --      2.5302                 1.4441                 1.3650
 Frc consts  --      1.3412                 0.7710                 0.7404
 IR Inten    --     24.0896                 2.0630                 4.5429

                     73                     74                     75
                      A                      A                      A
 Frequencies --    994.1737              1001.9897              1021.5845
 Red. masses --      4.7595                 3.9583                 6.3167
 Frc consts  --      2.7717                 2.3415                 3.8841
 IR Inten    --     28.9284                36.1858                 4.1869

                     76                     77                     78
                      A                      A                      A
 Frequencies --   1034.1142              1049.8595              1065.0504
 Red. masses --      3.9014                 3.7102                 3.7608
 Frc consts  --      2.4582                 2.4094                 2.5134
 IR Inten    --     45.3499                 8.4130               134.8325

                     79                     80                     81
                      A                      A                      A
 Frequencies --   1106.1777              1134.0309              1137.8316
 Red. masses --      2.8533                 7.5481                 2.7287
 Frc consts  --      2.0570                 5.7192                 2.0814
 IR Inten    --     14.5956                37.5742                83.4438

                     82                     83                     84
                      A                      A                      A
 Frequencies --   1141.9506              1146.5376              1151.8709
 Red. masses --      2.3157                 1.8101                 2.2773
 Frc consts  --      1.7792                 1.4019                 1.7803
 IR Inten    --    101.6225                26.0206                 5.3548

                     85                     86                     87
                      A                      A                      A
 Frequencies --   1159.8737              1175.3175              1183.2338
 Red. masses --      2.5004                 4.6861                 2.9618
 Frc consts  --      1.9819                 3.8140                 2.4432
 IR Inten    --    213.3281               436.5301               102.8216

                     88                     89                     90
                      A                      A                      A
 Frequencies --   1186.7869              1188.9116              1191.3355
 Red. masses --      2.1913                 1.5577                 1.3760
 Frc consts  --      1.8184                 1.2972                 1.1506
 IR Inten    --    194.7161                65.0004                 2.4513

                     91                     92                     93
                      A                      A                      A
 Frequencies --   1192.1160              1196.4056              1200.3075
 Red. masses --      1.2842                 1.3569                 9.5154
 Frc consts  --      1.0753                 1.1443                 8.0772
 IR Inten    --      3.9490                22.0400               410.6701

                     94                     95                     96
                      A                      A                      A
 Frequencies --   1202.9432              1212.8682              1216.6551
 Red. masses --      1.8052                 3.1163                12.3300
 Frc consts  --      1.5391                 2.7009                10.7534
 IR Inten    --     60.0894                90.1554               328.0267

                     97                     98                     99
                      A                      A                      A
 Frequencies --   1223.2687              1225.4798              1234.3694
 Red. masses --      1.9892                 3.6699                 1.6901
 Frc consts  --      1.7538                 3.2472                 1.5173
 IR Inten    --    119.3460               217.4601                42.3283

                    100                    101                    102
                      A                      A                      A
 Frequencies --   1242.1250              1247.1697              1247.8073
 Red. masses --      7.9079                 1.9263                 6.9932
 Frc consts  --      7.1886                 1.7653                 6.4154
 IR Inten    --    160.7970                22.7252               256.5922

                    103                    104                    105
                      A                      A                      A
 Frequencies --   1250.9221              1276.0214              1305.1719
 Red. masses --      2.2571                 1.8600                 1.9720
 Frc consts  --      2.0810                 1.7844                 1.9793
 IR Inten    --     81.0980                10.7840               478.0798

                    106                    107                    108
                      A                      A                      A
 Frequencies --   1310.6842              1313.2912              1347.1686
 Red. masses --      1.4948                 1.8624                 1.3024
 Frc consts  --      1.5129                 1.8925                 1.3927
 IR Inten    --      9.4371               351.3968                 7.0883

                    109                    110                    111
                      A                      A                      A
 Frequencies --   1352.9435              1355.5590              1378.4711
 Red. masses --      1.4164                 9.9748                 1.2268
 Frc consts  --      1.5275                10.7992                 1.3734
 IR Inten    --     25.0137               323.0870                20.9416

                    112                    113                    114
                      A                      A                      A
 Frequencies --   1378.8143              1395.6183              1400.6048
 Red. masses --      1.2495                 1.2677                 6.3197
 Frc consts  --      1.3996                 1.4548                 7.3043
 IR Inten    --     21.4426                 1.8648               176.2156

                    115                    116                    117
                      A                      A                      A
 Frequencies --   1406.2153              1409.3116              1420.0106
 Red. masses --      2.9472                 2.1254                 1.3236
 Frc consts  --      3.4337                 2.4872                 1.5724
 IR Inten    --      5.7476                14.5889                 6.6644

                    118                    119                    120
                      A                      A                      A
 Frequencies --   1433.5832              1438.3281              1451.0588
 Red. masses --      1.5451                 1.3577                 1.4169
 Frc consts  --      1.8709                 1.6549                 1.7578
 IR Inten    --     27.4641                14.4094                11.8088

                    121                    122                    123
                      A                      A                      A
 Frequencies --   1487.9134              1495.7646              1496.9197
 Red. masses --      1.0871                 1.1786                 1.1679
 Frc consts  --      1.4180                 1.5535                 1.5419
 IR Inten    --      3.0542                 2.2131                 0.6873

                    124                    125                    126
                      A                      A                      A
 Frequencies --   1499.3080              1505.0874              1506.8986
 Red. masses --      1.1316                 4.0940                 1.0506
 Frc consts  --      1.4987                 5.4641                 1.4056
 IR Inten    --      7.1695                 2.3968                 3.5035

                    127                    128                    129
                      A                      A                      A
 Frequencies --   1508.8125              1509.9352              1514.8450
 Red. masses --      1.0787                 1.0538                 1.1211
 Frc consts  --      1.4468                 1.4155                 1.5157
 IR Inten    --     15.5584                 0.9543                 0.9741

                    130                    131                    132
                      A                      A                      A
 Frequencies --   1517.6625              1519.4031              1528.9833
 Red. masses --      4.3542                 1.0990                 1.0463
 Frc consts  --      5.9090                 1.4948                 1.4412
 IR Inten    --      0.0149                 7.0049                12.1851

                    133                    134                    135
                      A                      A                      A
 Frequencies --   1534.3553              1535.7995              1537.5797
 Red. masses --      1.0496                 1.0497                 1.0574
 Frc consts  --      1.4559                 1.4587                 1.4729
 IR Inten    --     10.9207                 6.4244                10.4265

                    136                    137                    138
                      A                      A                      A
 Frequencies --   1679.8073              1699.8420              3027.8147
 Red. masses --      6.7885                 6.4978                 1.0823
 Frc consts  --     11.2861                11.0620                 5.8459
 IR Inten    --     20.6247                24.3293                27.0323

                    139                    140                    141
                      A                      A                      A
 Frequencies --   3043.0104              3044.8953              3048.8653
 Red. masses --      1.0351                 1.0387                 1.0343
 Frc consts  --      5.6471                 5.6737                 5.6647
 IR Inten    --     79.9644                56.3825                69.8051

                    142                    143                    144
                      A                      A                      A
 Frequencies --   3049.9877              3060.9128              3064.0358
 Red. masses --      1.0345                 1.0828                 1.0776
 Frc consts  --      5.6698                 5.9774                 5.9604
 IR Inten    --     49.7649                19.2271                 6.0095

                    145                    146                    147
                      A                      A                      A
 Frequencies --   3074.7830              3084.8940              3109.2328
 Red. masses --      1.0702                 1.0847                 1.1060
 Frc consts  --      5.9612                 6.0817                 6.2994
 IR Inten    --     38.6629                63.7248                57.1864

                    148                    149                    150
                      A                      A                      A
 Frequencies --   3123.7590              3125.8601              3128.3938
 Red. masses --      1.1024                 1.1039                 1.0973
 Frc consts  --      6.3379                 6.3552                 6.3270
 IR Inten    --     41.2743                49.7225                44.3476

                    151                    152                    153
                      A                      A                      A
 Frequencies --   3155.7332              3168.5534              3169.4104
 Red. masses --      1.0995                 1.0884                 1.1032
 Frc consts  --      6.4513                 6.4381                 6.5292
 IR Inten    --     16.5702                13.2049                40.3939

                    154                    155                    156
                      A                      A                      A
 Frequencies --   3172.1684              3173.7240              3183.7894
 Red. masses --      1.1034                 1.1046                 1.1003
 Frc consts  --      6.5420                 6.5556                 6.5714
 IR Inten    --     34.5143                33.1686                25.8257

                    157                    158                    159
                      A                      A                      A
 Frequencies --   3260.4301              3260.9571              3270.6770
 Red. masses --      1.0929                 1.0922                 1.0925
 Frc consts  --      6.8452                 6.8427                 6.8857
 IR Inten    --      5.7508                 3.1101                 8.6732

 - Thermochemistry -
 -------------------
 Temperature   298.150 Kelvin.  Pressure   1.00000 Atm.
 Atom     1 has atomic number  6 and mass  12.00000

 Molecular mass:   512.09396 amu.
 Principal axes and moments of inertia in atomic units:
                           1         2         3
     Eigenvalues --  ******************************
           X            0.99995   0.00423   0.00885
           Y           -0.00626   0.96977   0.24393
           Z           -0.00755  -0.24397   0.96975
 This molecule is an asymmetric top.
 Rotational symmetry number  1.
 Warning -- assumption of classical behavior for rotation
           may cause significant error
 Rotational temperatures (Kelvin)      0.00728     0.00407     0.00399
 Rotational constants (GHZ):           0.15175     0.08481     0.08315
 Zero-point vibrational energy    1091360.5 (Joules/Mol)
                                  260.84141 (Kcal/Mol)
 Warning -- explicit consideration of  56 degrees of freedom as
           vibrations may cause significant error
 Vibrational temperatures:     20.66    25.26    32.11    35.55    50.02
          (Kelvin)             62.57    73.07    76.28    95.28    98.92
                              108.44   122.99   130.80   143.13   148.50
                              164.20   177.18   218.37   225.22   237.83
                              245.93   263.77   276.58   286.12   301.31
                              331.47   338.85   357.22   371.27   380.70
                              406.38   417.07   423.64   426.93   454.14
                              472.69   498.08   510.97   519.07   535.11
                              597.51   611.76   630.12   656.48   676.23
                              686.35   711.92   722.71   758.07   768.21
                              786.81   824.85   827.61   841.83   879.72
                              890.14   934.80   979.25   986.35   994.89
                             1025.98  1045.57  1075.53  1192.18  1230.06
                             1240.12  1257.58  1297.12  1329.33  1364.69
                             1369.58  1380.51  1430.39  1441.64  1469.83
                             1487.86  1510.51  1532.37  1591.54  1631.62
                             1637.09  1643.01  1649.61  1657.29  1668.80
                             1691.02  1702.41  1707.52  1710.58  1714.07
                             1715.19  1721.36  1726.97  1730.77  1745.05
                             1750.50  1760.01  1763.19  1775.98  1787.14
                             1794.40  1795.32  1799.80  1835.91  1877.85
                             1885.78  1889.53  1938.28  1946.58  1950.35
                             1983.31  1983.81  2007.98  2015.16  2023.23
                             2027.69  2043.08  2062.61  2069.43  2087.75
                             2140.78  2152.07  2153.73  2157.17  2165.49
                             2168.09  2170.84  2172.46  2179.52  2183.58
                             2186.08  2199.87  2207.60  2209.67  2212.23
                             2416.87  2445.69  4356.35  4378.21  4380.93
                             4386.64  4388.25  4403.97  4408.46  4423.93
                             4438.47  4473.49  4494.39  4497.42  4501.06
                             4540.40  4558.84  4560.07  4564.04  4566.28
                             4580.76  4691.03  4691.79  4705.77

 Zero-point correction=                           0.415677 (Hartree/Particle)
 Thermal correction to Energy=                    0.448998
 Thermal correction to Enthalpy=                  0.449943
 Thermal correction to Gibbs Free Energy=         0.346458
 Sum of electronic and zero-point Energies=          -2295.611676
 Sum of electronic and thermal Energies=             -2295.578355
 Sum of electronic and thermal Enthalpies=           -2295.577411
 Sum of electronic and thermal Free Energies=        -2295.680896

                     E (Thermal)             CV                S
                      KCal/Mol        Cal/Mol-Kelvin    Cal/Mol-Kelvin
 Total                  281.751            119.757            217.802
 Electronic               0.000              0.000              0.000
 Translational            0.889              2.981             44.587
 Rotational               0.889              2.981             36.950
 Vibrational            279.973            113.796            136.266
 Vibration     1          0.593              1.986              7.293
 Vibration     2          0.593              1.986              6.893
 Vibration     3          0.593              1.985              6.417
 Vibration     4          0.593              1.985              6.215
 Vibration     5          0.594              1.983              5.537
 Vibration     6          0.595              1.980              5.093
 Vibration     7          0.595              1.977              4.787
 Vibration     8          0.596              1.976              4.702
 Vibration     9          0.598              1.970              4.263
 Vibration    10          0.598              1.969              4.189
 Vibration    11          0.599              1.965              4.008
 Vibration    12          0.601              1.959              3.761
 Vibration    13          0.602              1.956              3.640
 Vibration    14          0.604              1.949              3.464
 Vibration    15          0.605              1.947              3.393
 Vibration    16          0.607              1.938              3.198
 Vibration    17          0.610              1.930              3.050
 Vibration    18          0.619              1.901              2.650
 Vibration    19          0.620              1.895              2.591
 Vibration    20          0.624              1.885              2.488
 Vibration    21          0.626              1.878              2.425
 Vibration    22          0.631              1.863              2.294
 Vibration    23          0.634              1.851              2.206
 Vibration    24          0.637              1.841              2.144
 Vibration    25          0.642              1.826              2.049
 Vibration    26          0.652              1.795              1.876
 Vibration    27          0.655              1.786              1.837
 Vibration    28          0.662              1.766              1.743
 Vibration    29          0.667              1.749              1.675
 Vibration    30          0.671              1.738              1.631
 Vibration    31          0.681              1.706              1.519
 Vibration    32          0.686              1.693              1.475
 Vibration    33          0.689              1.684              1.448
 Vibration    34          0.690              1.680              1.435
 Vibration    35          0.703              1.644              1.333
 Vibration    36          0.712              1.618              1.267
 Vibration    37          0.724              1.583              1.183
 Vibration    38          0.731              1.565              1.143
 Vibration    39          0.735              1.553              1.119
 Vibration    40          0.744              1.530              1.072
 Vibration    41          0.779              1.437              0.908
 Vibration    42          0.787              1.415              0.875
 Vibration    43          0.798              1.387              0.833
 Vibration    44          0.815              1.347              0.777
 Vibration    45          0.827              1.317              0.738
 Vibration    46          0.834              1.301              0.718
 Vibration    47          0.850              1.262              0.671
 Vibration    48          0.858              1.245              0.652
 Vibration    49          0.882              1.190              0.594
 Vibration    50          0.889              1.175              0.578
 Vibration    51          0.902              1.147              0.551
 Vibration    52          0.930              1.089              0.498
 Vibration    53          0.932              1.085              0.494
 Vibration    54          0.942              1.064              0.476
 Vibration    55          0.971              1.008              0.430
 Vibration    56          0.979              0.992              0.419

                           ! Non-Optimized Parameters !
 Normal termination of Gaussian 16 at Sat Jun 15 10:03:36 2019.
