 Gaussian 16, Revision A.03,
 Gaussian 16:  AS64L-G16RevA.03 25-Dec-2016

 ----------------------------------------------------------------------
 #p opt freq=noraman pop=none 6-31g* scrf=(pcm,solvent=tetrahydrofuran)
  bhandh extrabasis
 ----------------------------------------------------------------------

 -----
 title
 -----
 Symbolic Z-matrix:
 Charge =  0 Multiplicity = 1

 SCF Done:  E(RBHandH) =  -2285.30445987     A.U. after   13 cycles
 SCF Done:  E(RBHandH) =  -2285.30445987     A.U. after    6 cycles
 SCF Done:  E(RBHandH) =  -2285.30445955     A.U. after    7 cycles
 SCF Done:  E(RBHandH) =  -2285.30445991     A.U. after    6 cycles
 Optimization completed.
    -- Stationary point found.
 Normal termination of Gaussian 16 at Sat Jun 15 08:04:59 2019.

 -------------------------------------------------------------------
 #P Geom=AllCheck Guess=TCheck SCRF=Check GenChk RBHandH/ChkBas Freq
 -------------------------------------------------------------------

 Structure from the checkpoint file:  "/scratch/users/ekwan/clay_new-glu_gluC6-bisCF3-sm-bhandh-custom-pcm_thf/Gau-19665.chk"
 -----
 title
 -----
 Charge =  0 Multiplicity = 1

                         Standard orientation:
 ---------------------------------------------------------------------
 Center     Atomic      Atomic             Coordinates (Angstroms)
 Number     Number       Type             X           Y           Z
 ---------------------------------------------------------------------
      1          6           0        3.345901    0.068662    0.754183
      2          6           0        3.283122   -0.370803   -0.685637
      3          6           0        1.848370   -0.498365   -1.150570
      4          6           0        1.067341    1.016918    0.458059
      5          6           0        2.464281    1.268005    0.962442
      6          1           0        1.781809   -0.688218   -2.220164
      7          1           0        3.735025    0.420318   -1.302402
      8          1           0        2.983785   -0.745157    1.396682
      9          1           0        0.604253    0.223848    1.057973
     10          1           0        2.879023    2.113617    0.401213
     11          8           0        1.102894    0.614884   -0.896196
     12          8           0        1.318401   -1.631015   -0.466384
     13          8           0        3.984687   -1.549800   -0.824731
     14          8           0        4.636476    0.425520    1.112574
     15          8           0        2.375968    1.576493    2.310494
     16          6           0        0.218654    2.250012    0.585406
     17          1           0        0.025402    2.397842    1.647349
     18          1           0       -0.737978    2.089402    0.075010
     19          8           0        0.830975    3.405310    0.126591
     20         16           0        0.058039   -2.366106   -1.070767
     21          8           0       -0.006843   -3.615417   -0.379151
     22          8           0        0.157786   -2.307428   -2.501394
     23          6           0       -1.289355   -1.377241   -0.567876
     24          6           0       -1.884908   -1.632395    0.647473
     25          6           0       -1.703146   -0.349460   -1.386508
     26          6           0       -2.928123   -0.825450    1.046610
     27          1           0       -1.541410   -2.451211    1.266774
     28          6           0       -2.740282    0.447844   -0.958683
     29          1           0       -1.223121   -0.177366   -2.340717
     30          6           0       -3.355810    0.217174    0.253584
     31          1           0       -4.171249    0.850034    0.579410
     32          6           0        4.165117   -1.961105   -2.143092
     33          1           0        3.236242   -2.334461   -2.585595
     34          1           0        4.549679   -1.142836   -2.760828
     35          1           0        4.890948   -2.770608   -2.134012
     36          6           0        5.393138   -0.605970    1.665485
     37          1           0        6.362387   -0.187408    1.930231
     38          1           0        4.917845   -0.995158    2.572184
     39          1           0        5.529477   -1.424792    0.957860
     40          6           0        3.126181    2.690605    2.681970
     41          1           0        2.983347    2.837106    3.751139
     42          1           0        4.187074    2.532499    2.476575
     43          1           0        2.781558    3.582673    2.149020
     44          6           0        0.836854    3.542288   -1.259708
     45          1           0        1.134237    4.565143   -1.484213
     46          1           0       -0.161592    3.361732   -1.672040
     47          1           0        1.535473    2.851561   -1.737304
     48          6           0       -3.628467   -1.109968    2.326585
     49          9           0       -2.823334   -1.690272    3.192821
     50          9           0       -4.657031   -1.915807    2.146118
     51          9           0       -4.091278   -0.003541    2.872851
     52          6           0       -3.156242    1.609207   -1.786388
     53          9           0       -2.480661    2.700750   -1.454462
     54          9           0       -4.432903    1.884460   -1.625876
     55          9           0       -2.935830    1.393411   -3.065487
 ---------------------------------------------------------------------

 SCF Done:  E(RBHandH) =  -2285.30445991     A.U. after    1 cycles

 Isotropic polarizability for W=    0.000000      261.89 Bohr**3.
 End of Minotr F.D. properties file   721 does not exist.

                      1                      2                      3
                      A                      A                      A
 Frequencies --     14.5446                18.3097                20.6006
 Red. masses --      9.8585                 6.4523                16.2529
 Frc consts  --      0.0012                 0.0013                 0.0041
 IR Inten    --      0.1047                 0.6047                 0.0185

                      4                      5                      6
                      A                      A                      A
 Frequencies --     23.1312                36.4686                44.9995
 Red. masses --     13.1083                 4.3529                 4.5096
 Frc consts  --      0.0041                 0.0034                 0.0054
 IR Inten    --      0.0218                 0.1250                 1.9843

                      7                      8                      9
                      A                      A                      A
 Frequencies --     55.9583                60.5620                67.0202
 Red. masses --      4.8276                 3.7085                 3.9078
 Frc consts  --      0.0089                 0.0080                 0.0103
 IR Inten    --      0.5864                 1.3292                 6.6948

                     10                     11                     12
                      A                      A                      A
 Frequencies --     75.7931                81.4403                93.4987
 Red. masses --      4.1484                 3.5822                 2.4171
 Frc consts  --      0.0140                 0.0140                 0.0124
 IR Inten    --      0.4393                 4.5668                 4.8531

                     13                     14                     15
                      A                      A                      A
 Frequencies --     96.0186               104.2517               107.7649
 Red. masses --      3.6773                12.3293                 6.4853
 Frc consts  --      0.0200                 0.0790                 0.0444
 IR Inten    --      2.2516                 3.6444                 3.4295

                     16                     17                     18
                      A                      A                      A
 Frequencies --    117.7389               131.0226               159.0438
 Red. masses --      6.3852                 2.4034                 7.7148
 Frc consts  --      0.0522                 0.0243                 0.1150
 IR Inten    --      1.4155                 2.9065                 0.5286

                     19                     20                     21
                      A                      A                      A
 Frequencies --    167.9548               178.9043               182.3127
 Red. masses --      1.5639                 3.7203                 3.3161
 Frc consts  --      0.0260                 0.0702                 0.0649
 IR Inten    --      1.2294                 0.8893                 2.2414

                     22                     23                     24
                      A                      A                      A
 Frequencies --    193.5497               204.0758               214.4509
 Red. masses --      2.6161                 1.3931                 3.0567
 Frc consts  --      0.0577                 0.0342                 0.0828
 IR Inten    --      0.1602                 3.7590                11.8575

                     25                     26                     27
                      A                      A                      A
 Frequencies --    225.5314               241.7868               245.1631
 Red. masses --      1.6309                11.4552                 1.8063
 Frc consts  --      0.0489                 0.3946                 0.0640
 IR Inten    --      0.6231                 0.0564                 8.0103

                     28                     29                     30
                      A                      A                      A
 Frequencies --    257.0834               269.4443               274.5709
 Red. masses --      2.9522                 7.5262                 3.3800
 Frc consts  --      0.1150                 0.3219                 0.1501
 IR Inten    --      4.1112                 6.7071                11.0910

                     31                     32                     33
                      A                      A                      A
 Frequencies --    295.5158               300.6452               306.6128
 Red. masses --     11.3307                 4.3962                11.5646
 Frc consts  --      0.5830                 0.2341                 0.6406
 IR Inten    --      2.7736                12.4397                 3.6522

                     34                     35                     36
                      A                      A                      A
 Frequencies --    311.4909               328.4621               343.7515
 Red. masses --      6.9502                 5.2209                 3.7956
 Frc consts  --      0.3973                 0.3319                 0.2643
 IR Inten    --     14.2002                 0.3026                 4.2055

                     37                     38                     39
                      A                      A                      A
 Frequencies --    361.9695               369.3731               379.1224
 Red. masses --      6.9097                 5.6691                 5.5192
 Frc consts  --      0.5334                 0.4557                 0.4674
 IR Inten    --      2.0165                 2.7023                10.0737

                     40                     41                     42
                      A                      A                      A
 Frequencies --    395.6918               434.0463               443.5608
 Red. masses --      8.9499                 9.7805                 8.6012
 Frc consts  --      0.8256                 1.0856                 0.9970
 IR Inten    --     15.0780                18.3096                 7.6241

                     43                     44                     45
                      A                      A                      A
 Frequencies --    454.0196               478.3378               490.1716
 Red. masses --      2.0725                 5.7541                 8.3963
 Frc consts  --      0.2517                 0.7757                 1.1886
 IR Inten    --     12.0168                 9.4949                18.8476

                     46                     47                     48
                      A                      A                      A
 Frequencies --    499.5829               522.6771               525.3309
 Red. masses --      4.0107                 7.0983                10.9991
 Frc consts  --      0.5898                 1.1425                 1.7884
 IR Inten    --      8.9923                16.0612                 3.6982

                     49                     50                     51
                      A                      A                      A
 Frequencies --    548.5277               558.8263               572.1184
 Red. masses --      3.9952                 9.9705                 6.1667
 Frc consts  --      0.7083                 1.8345                 1.1892
 IR Inten    --     26.0585                58.8446                 4.9527

                     52                     53                     54
                      A                      A                      A
 Frequencies --    595.9697               602.6845               617.6328
 Red. masses --      3.7882                14.4993                10.0877
 Frc consts  --      0.7928                 3.1030                 2.2673
 IR Inten    --     54.1669                 1.3234               276.0174

                     55                     56                     57
                      A                      A                      A
 Frequencies --    642.5576               648.0835               682.7707
 Red. masses --      6.6164                 7.7450                 5.4202
 Frc consts  --      1.6095                 1.9166                 1.4887
 IR Inten    --     41.2234                 8.0751                17.8139

                     58                     59                     60
                      A                      A                      A
 Frequencies --    712.4446               714.5596               730.4992
 Red. masses --      7.6026                12.2605                 5.1540
 Frc consts  --      2.2736                 3.6884                 1.6204
 IR Inten    --      3.0823                66.2809                11.8871

                     61                     62                     63
                      A                      A                      A
 Frequencies --    738.6414               762.5684               786.4128
 Red. masses --      2.3006                 9.6386                 5.4815
 Frc consts  --      0.7395                 3.3023                 1.9973
 IR Inten    --     45.1523                 2.6194                28.6411

                     64                     65                     66
                      A                      A                      A
 Frequencies --    882.8720               902.8714               921.7765
 Red. masses --      4.2150                 4.8254                11.5918
 Frc consts  --      1.9357                 2.3176                 5.8030
 IR Inten    --     51.6287                 5.5130                13.9691

                     67                     68                     69
                      A                      A                      A
 Frequencies --    930.2884               963.3468               975.8877
 Red. masses --      4.9435                 1.7514                 4.7970
 Frc consts  --      2.5207                 0.9577                 2.6916
 IR Inten    --    266.1002                 5.5841               443.3375

                     70                     71                     72
                      A                      A                      A
 Frequencies --    991.4580               998.4377              1003.8543
 Red. masses --      1.4533                 2.4083                 1.3765
 Frc consts  --      0.8417                 1.4145                 0.8173
 IR Inten    --      3.5702                15.3105                 5.0261

                     73                     74                     75
                      A                      A                      A
 Frequencies --   1052.6089              1054.3360              1058.4271
 Red. masses --      5.8814                 4.3143                 3.7240
 Frc consts  --      3.8394                 2.8256                 2.4580
 IR Inten    --     36.8696                59.9943                11.1307

                     76                     77                     78
                      A                      A                      A
 Frequencies --   1098.1558              1106.7164              1125.0564
 Red. masses --      3.6077                 2.8458                 3.9263
 Frc consts  --      2.5634                 2.0536                 2.9281
 IR Inten    --     54.3133                22.5965               134.8131

                     79                     80                     81
                      A                      A                      A
 Frequencies --   1160.2429              1172.6531              1178.1831
 Red. masses --      2.3983                 1.5429                 1.5455
 Frc consts  --      1.9022                 1.2501                 1.2640
 IR Inten    --     14.9290                18.0870                 7.2578

                     82                     83                     84
                      A                      A                      A
 Frequencies --   1185.9678              1197.3051              1199.6454
 Red. masses --      2.3877                 1.9631                 5.2310
 Frc consts  --      1.9787                 1.6581                 4.4355
 IR Inten    --     50.7043                57.5586                69.0863

                     85                     86                     87
                      A                      A                      A
 Frequencies --   1208.6955              1222.8894              1223.5439
 Red. masses --      1.9505                 1.3002                 1.2866
 Frc consts  --      1.6789                 1.1456                 1.1349
 IR Inten    --    113.7489                 8.0662                 1.1415

                     88                     89                     90
                      A                      A                      A
 Frequencies --   1225.6582              1230.2884              1238.3510
 Red. masses --      1.3329                 1.2947                 1.4636
 Frc consts  --      1.1798                 1.1546                 1.3224
 IR Inten    --     13.6951                 3.3677                 2.2051

                     91                     92                     93
                      A                      A                      A
 Frequencies --   1241.1809              1245.0153              1246.6453
 Red. masses --      2.4023                 3.2258                 1.7319
 Frc consts  --      2.1805                 2.9460                 1.5859
 IR Inten    --    189.8214               349.8147                53.3416

                     94                     95                     96
                      A                      A                      A
 Frequencies --   1269.8124              1287.2556              1292.7416
 Red. masses --      1.7976                 2.7474                 4.8927
 Frc consts  --      1.7077                 2.6822                 4.8175
 IR Inten    --     36.9541               187.2788               293.1177

                     97                     98                     99
                      A                      A                      A
 Frequencies --   1296.4532              1304.7941              1311.2360
 Red. masses --      9.8189                 3.4537                 3.1807
 Frc consts  --      9.7236                 3.4643                 3.2221
 IR Inten    --    495.4257               142.7369                92.8419

                    100                    101                    102
                      A                      A                      A
 Frequencies --   1317.9510              1319.1395              1320.7832
 Red. masses --     11.8745                 1.6679                 3.1159
 Frc consts  --     12.1524                 1.7100                 3.2026
 IR Inten    --    359.2338                28.0222                95.6349

                    103                    104                    105
                      A                      A                      A
 Frequencies --   1326.8573              1340.6140              1346.7412
 Red. masses --      2.2646                 5.3337                 4.9107
 Frc consts  --      2.3490                 5.6479                 5.2476
 IR Inten    --     58.6223               265.6235               124.6090

                    106                    107                    108
                      A                      A                      A
 Frequencies --   1349.9717              1382.4887              1383.7944
 Red. masses --      1.6339                 3.7135                 1.3453
 Frc consts  --      1.7544                 4.1817                 1.5178
 IR Inten    --     28.4306               892.6677                 9.0621

                    109                    110                    111
                      A                      A                      A
 Frequencies --   1397.6259              1413.2656              1420.3795
 Red. masses --      1.4383                 1.3079                 1.4655
 Frc consts  --      1.6553                 1.5392                 1.7420
 IR Inten    --      5.4723                39.0384                 7.6849

                    112                    113                    114
                      A                      A                      A
 Frequencies --   1428.4315              1439.2264              1446.1900
 Red. masses --      3.2981                 1.9616                 4.1434
 Frc consts  --      3.9649                 2.3939                 5.1057
 IR Inten    --    285.7227                50.6740                37.6190

                    115                    116                    117
                      A                      A                      A
 Frequencies --   1459.4376              1461.0864              1478.5403
 Red. masses --      1.5537                 1.5880                 5.9525
 Frc consts  --      1.9498                 1.9973                 7.6668
 IR Inten    --     25.8422                29.3818               202.8942

                    118                    119                    120
                      A                      A                      A
 Frequencies --   1482.5143              1485.8140              1501.1891
 Red. masses --      1.4496                 1.7723                 1.6591
 Frc consts  --      1.8771                 2.3052                 2.2029
 IR Inten    --     26.1416                21.3421                 5.9877

                    121                    122                    123
                      A                      A                      A
 Frequencies --   1510.8147              1524.6469              1526.4826
 Red. masses --      1.0850                 1.1322                 1.1943
 Frc consts  --      1.4592                 1.5507                 1.6397
 IR Inten    --      4.6349                15.7387                 6.2753

                    124                    125                    126
                      A                      A                      A
 Frequencies --   1528.8166              1530.6956              1533.8289
 Red. masses --      1.2065                 1.0704                 1.0762
 Frc consts  --      1.6614                 1.4776                 1.4917
 IR Inten    --      6.9981                 7.9894                13.6161

                    127                    128                    129
                      A                      A                      A
 Frequencies --   1535.1258              1542.5763              1547.5932
 Red. masses --      1.0980                 1.1357                 1.1338
 Frc consts  --      1.5246                 1.5922                 1.6000
 IR Inten    --      7.1975                 4.0546                 3.7613

                    130                    131                    132
                      A                      A                      A
 Frequencies --   1555.9745              1558.5740              1561.6189
 Red. masses --      1.0538                 1.0477                 1.0539
 Frc consts  --      1.5032                 1.4995                 1.5142
 IR Inten    --     15.8597                 6.8745                12.5914

                    133                    134                    135
                      A                      A                      A
 Frequencies --   1561.9167              1570.3912              1579.8570
 Red. masses --      1.0717                 5.3433                 5.4253
 Frc consts  --      1.5404                 7.7638                 7.9783
 IR Inten    --      8.4749                 0.1414                 2.0208

                    136                    137                    138
                      A                      A                      A
 Frequencies --   1758.8094              1778.0370              3074.1278
 Red. masses --      7.3348                 7.0160                 1.0832
 Frc consts  --     13.3683                13.0684                 6.0314
 IR Inten    --     39.2963                42.4917                19.9197

                    139                    140                    141
                      A                      A                      A
 Frequencies --   3096.0009              3096.5037              3102.4745
 Red. masses --      1.0363                 1.0812                 1.0388
 Frc consts  --      5.8523                 6.1079                 5.8913
 IR Inten    --     50.1756                23.1691                46.9695

                    142                    143                    144
                      A                      A                      A
 Frequencies --   3103.5399              3106.7247              3110.7798
 Red. masses --      1.0426                 1.0379                 1.0775
 Frc consts  --      5.9169                 5.9024                 6.1436
 IR Inten    --     52.8392                38.8212                 7.8103

                    145                    146                    147
                      A                      A                      A
 Frequencies --   3123.9212              3132.9577              3162.9933
 Red. masses --      1.0825                 1.0684                 1.1065
 Frc consts  --      6.2240                 6.1784                 6.5220
 IR Inten    --     40.2401                45.8008                45.6966

                    148                    149                    150
                      A                      A                      A
 Frequencies --   3180.6652              3183.9193              3190.7948
 Red. masses --      1.1036                 1.1032                 1.0960
 Frc consts  --      6.5781                 6.5891                 6.5745
 IR Inten    --     32.6346                33.7839                36.6354

                    151                    152                    153
                      A                      A                      A
 Frequencies --   3214.2006              3222.0222              3227.9506
 Red. masses --      1.1001                 1.0891                 1.1041
 Frc consts  --      6.6961                 6.6614                 6.7783
 IR Inten    --     11.0420                 7.7332                33.6810

                    154                    155                    156
                      A                      A                      A
 Frequencies --   3231.0740              3234.9129              3241.9422
 Red. masses --      1.1042                 1.1060                 1.1008
 Frc consts  --      6.7922                 6.8194                 6.8165
 IR Inten    --     27.5119                23.1619                19.0424

                    157                    158                    159
                      A                      A                      A
 Frequencies --   3306.3285              3306.5730              3312.7223
 Red. masses --      1.0943                 1.0933                 1.0940
 Frc consts  --      7.0481                 7.0425                 7.0736
 IR Inten    --      6.1992                14.7951                13.9009

 - Thermochemistry -
 -------------------
 Temperature   298.150 Kelvin.  Pressure   1.00000 Atm.
 Atom     1 has atomic number  6 and mass  12.00000

 Molecular mass:   512.09396 amu.
 Principal axes and moments of inertia in atomic units:
                           1         2         3
     Eigenvalues --  ******************************
           X            0.99994   0.00164   0.01041
           Y           -0.00304   0.99077   0.13555
           Z           -0.01009  -0.13557   0.99072
 This molecule is an asymmetric top.
 Rotational symmetry number  1.
 Warning -- assumption of classical behavior for rotation
           may cause significant error
 Rotational temperatures (Kelvin)      0.00752     0.00421     0.00400
 Rotational constants (GHZ):           0.15677     0.08783     0.08332
 Zero-point vibrational energy    1126243.7 (Joules/Mol)
                                  269.17870 (Kcal/Mol)
 Warning -- explicit consideration of  54 degrees of freedom as
           vibrations may cause significant error
 Vibrational temperatures:     20.93    26.34    29.64    33.28    52.47
          (Kelvin)             64.74    80.51    87.14    96.43   109.05
                              117.17   134.52   138.15   149.99   155.05
                              169.40   188.51   228.83   241.65   257.40
                              262.31   278.47   293.62   308.55   324.49
                              347.88   352.74   369.89   387.67   395.05
                              425.18   432.56   441.15   448.17   472.58
                              494.58   520.79   531.45   545.47   569.31
                              624.50   638.19   653.23   688.22   705.25
                              718.79   752.02   755.83   789.21   804.03
                              823.15   857.47   867.13   888.64   924.50
                              932.45   982.35  1025.05  1028.09  1051.03
                             1062.74  1097.17  1131.47  1270.26  1299.03
                             1326.23  1338.48  1386.04  1404.08  1426.49
                             1436.53  1444.32  1514.47  1516.95  1522.84
                             1580.00  1592.32  1618.71  1669.33  1687.19
                             1695.14  1706.34  1722.65  1726.02  1739.04
                             1759.47  1760.41  1763.45  1770.11  1781.71
                             1785.78  1791.30  1793.64  1826.98  1852.07
                             1859.97  1865.31  1877.31  1886.58  1896.24
                             1897.95  1900.31  1909.05  1928.84  1937.66
                             1942.31  1989.09  1990.97  2010.87  2033.37
                             2043.61  2055.19  2070.73  2080.74  2099.81
                             2102.18  2127.29  2133.01  2137.75  2159.88
                             2173.73  2193.63  2196.27  2199.63  2202.33
                             2206.84  2208.70  2219.42  2226.64  2238.70
                             2242.44  2246.82  2247.25  2259.44  2273.06
                             2530.53  2558.20  4422.98  4454.45  4455.18
                             4463.77  4465.30  4469.88  4475.72  4494.63
                             4507.63  4550.84  4576.27  4580.95  4590.84
                             4624.52  4635.77  4644.30  4648.79  4654.32
                             4664.43  4757.07  4757.42  4766.27

 Zero-point correction=                           0.428964 (Hartree/Particle)
 Thermal correction to Energy=                    0.461167
 Thermal correction to Enthalpy=                  0.462111
 Thermal correction to Gibbs Free Energy=         0.361161
 Sum of electronic and zero-point Energies=          -2284.875496
 Sum of electronic and thermal Energies=             -2284.843293
 Sum of electronic and thermal Enthalpies=           -2284.842348
 Sum of electronic and thermal Free Energies=        -2284.943299

                     E (Thermal)             CV                S
                      KCal/Mol        Cal/Mol-Kelvin    Cal/Mol-Kelvin
 Total                  289.387            115.708            212.467
 Electronic               0.000              0.000              0.000
 Translational            0.889              2.981             44.587
 Rotational               0.889              2.981             36.881
 Vibrational            287.609            109.746            131.000
 Vibration     1          0.593              1.986              7.267
 Vibration     2          0.593              1.986              6.810
 Vibration     3          0.593              1.986              6.575
 Vibration     4          0.593              1.985              6.345
 Vibration     5          0.594              1.982              5.442
 Vibration     6          0.595              1.979              5.026
 Vibration     7          0.596              1.975              4.595
 Vibration     8          0.597              1.973              4.439
 Vibration     9          0.598              1.970              4.239
 Vibration    10          0.599              1.965              3.997
 Vibration    11          0.600              1.962              3.856
 Vibration    12          0.603              1.954              3.586
 Vibration    13          0.603              1.952              3.534
 Vibration    14          0.605              1.946              3.373
 Vibration    15          0.606              1.943              3.309
 Vibration    16          0.608              1.935              3.137
 Vibration    17          0.612              1.922              2.931
 Vibration    18          0.621              1.892              2.561
 Vibration    19          0.625              1.882              2.458
 Vibration    20          0.629              1.868              2.340
 Vibration    21          0.630              1.864              2.305
 Vibration    22          0.635              1.849              2.194
 Vibration    23          0.640              1.834              2.096
 Vibration    24          0.644              1.819              2.005
 Vibration    25          0.650              1.802              1.914
 Vibration    26          0.658              1.776              1.790
 Vibration    27          0.660              1.771              1.765
 Vibration    28          0.667              1.751              1.681
 Vibration    29          0.674              1.729              1.600
 Vibration    30          0.677              1.720              1.567
 Vibration    31          0.690              1.682              1.442
 Vibration    32          0.693              1.672              1.413
 Vibration    33          0.697              1.661              1.381
 Vibration    34          0.700              1.652              1.354
 Vibration    35          0.712              1.619              1.268
 Vibration    36          0.722              1.588              1.195
 Vibration    37          0.736              1.551              1.114
 Vibration    38          0.742              1.535              1.082
 Vibration    39          0.749              1.515              1.043
 Vibration    40          0.762              1.479              0.979
 Vibration    41          0.795              1.396              0.846
 Vibration    42          0.803              1.375              0.815
 Vibration    43          0.812              1.352              0.784
 Vibration    44          0.835              1.298              0.715
 Vibration    45          0.846              1.272              0.683
 Vibration    46          0.855              1.251              0.659
 Vibration    47          0.878              1.200              0.604
 Vibration    48          0.880              1.194              0.598
 Vibration    49          0.904              1.143              0.547
 Vibration    50          0.914              1.120              0.526
 Vibration    51          0.928              1.092              0.500
 Vibration    52          0.954              1.040              0.457
 Vibration    53          0.961              1.026              0.445
 Vibration    54          0.977              0.995              0.420

                           ! Non-Optimized Parameters !
 Normal termination of Gaussian 16 at Sat Jun 15 08:52:26 2019.
