 Gaussian 16, Revision A.03,
 Gaussian 16:  AS64L-G16RevA.03 25-Dec-2016

 ----------------------------------------------------------------------
 #p opt freq=noraman pop=none 6-31g* scrf=(pcm,solvent=tetrahydrofuran)
  cam-b3lyp empiricaldispersion=gd3bj extrabasis
 ----------------------------------------------------------------------

 -----
 title
 -----
 Symbolic Z-matrix:
 Charge =  0 Multiplicity = 1

 SCF Done:  E(RCAM-B3LYP) =  -2297.45596193     A.U. after   14 cycles
 Optimization completed.
    -- Stationary point found.
 Normal termination of Gaussian 16 at Sat Jun 15 08:02:17 2019.

 ----------------------------------------------------------------------
 #P Geom=AllCheck Guess=TCheck SCRF=Check GenChk RCAM-B3LYP/ChkBas Freq
 ----------------------------------------------------------------------

 Structure from the checkpoint file:  "/scratch/users/ekwan/clay_new-glu_gluC6-bisCF3-sm-cam_b3lyp_d3bj-custom-pcm_thf/Gau-35005.chk"
 -----
 title
 -----
 Charge =  0 Multiplicity = 1

                         Standard orientation:
 ---------------------------------------------------------------------
 Center     Atomic      Atomic             Coordinates (Angstroms)
 Number     Number       Type             X           Y           Z
 ---------------------------------------------------------------------
      1          6           0        3.370111    0.151787    0.722348
      2          6           0        3.318179   -0.357748   -0.713917
      3          6           0        1.870941   -0.536716   -1.182022
      4          6           0        1.055408    1.084867    0.367127
      5          6           0        2.463725    1.365054    0.881194
      6          1           0        1.807549   -0.775950   -2.242456
      7          1           0        3.755045    0.415742   -1.363508
      8          1           0        3.023090   -0.635918    1.403694
      9          1           0        0.586157    0.328964    1.008939
     10          1           0        2.883070    2.198153    0.305684
     11          8           0        1.097465    0.590678   -0.983125
     12          8           0        1.346372   -1.668654   -0.434269
     13          8           0        4.060380   -1.543402   -0.802601
     14          8           0        4.680747    0.549274    1.060080
     15          8           0        2.347303    1.711978    2.243969
     16          6           0        0.178860    2.326169    0.392908
     17          1           0       -0.010711    2.565920    1.441238
     18          1           0       -0.778671    2.106226   -0.093857
     19          8           0        0.772890    3.470209   -0.175463
     20         16           0        0.064625   -2.460057   -1.009149
     21          8           0        0.036316   -3.700788   -0.258378
     22          8           0        0.131251   -2.462228   -2.463086
     23          6           0       -1.306842   -1.453100   -0.504510
     24          6           0       -1.808686   -1.602287    0.780286
     25          6           0       -1.814918   -0.514555   -1.390683
     26          6           0       -2.853354   -0.780293    1.181852
     27          1           0       -1.393865   -2.343586    1.452748
     28          6           0       -2.855854    0.298077   -0.965359
     29          1           0       -1.406274   -0.419695   -2.388676
     30          6           0       -3.377390    0.171040    0.316413
     31          1           0       -4.189081    0.811864    0.639573
     32          6           0        4.433099   -1.911270   -2.118737
     33          1           0        3.570609   -2.228842   -2.716611
     34          1           0        4.938842   -1.082148   -2.629553
     35          1           0        5.121922   -2.751444   -2.026385
     36          6           0        5.435929   -0.427287    1.754272
     37          1           0        6.404373    0.025254    1.975753
     38          1           0        4.947636   -0.703271    2.698003
     39          1           0        5.581388   -1.326029    1.148702
     40          6           0        3.088274    2.861186    2.614744
     41          1           0        2.906559    3.023305    3.678923
     42          1           0        4.158849    2.710630    2.445755
     43          1           0        2.750558    3.741494    2.053704
     44          6           0        0.705409    3.532797   -1.589298
     45          1           0        0.987933    4.548282   -1.874008
     46          1           0       -0.314141    3.330732   -1.940814
     47          1           0        1.386450    2.820230   -2.064719
     48          6           0       -3.454556   -0.956039    2.547536
     49          9           0       -2.556059   -1.431812    3.421528
     50          9           0       -4.482200   -1.819705    2.522170
     51          9           0       -3.923926    0.204854    3.028238
     52          6           0       -3.370200    1.379278   -1.871013
     53          9           0       -2.726593    2.544526   -1.648536
     54          9           0       -4.674206    1.612056   -1.672740
     55          9           0       -3.192780    1.072160   -3.161950
 ---------------------------------------------------------------------

 SCF Done:  E(RCAM-B3LYP) =  -2297.45596193     A.U. after    1 cycles

 Isotropic polarizability for W=    0.000000      272.62 Bohr**3.
 End of Minotr F.D. properties file   721 does not exist.

                      1                      2                      3
                      A                      A                      A
 Frequencies --     12.5654                17.3788                22.4690
 Red. masses --      9.8131                 7.8812                17.5870
 Frc consts  --      0.0009                 0.0014                 0.0052
 IR Inten    --      0.0353                 0.3577                 0.0156

                      4                      5                      6
                      A                      A                      A
 Frequencies --     25.0968                35.4960                46.2582
 Red. masses --      9.6398                 4.7487                 6.3075
 Frc consts  --      0.0036                 0.0035                 0.0080
 IR Inten    --      0.1930                 0.1545                 0.7838

                      7                      8                      9
                      A                      A                      A
 Frequencies --     55.4434                58.7164                68.7905
 Red. masses --      4.5210                 3.1860                 4.3073
 Frc consts  --      0.0082                 0.0065                 0.0120
 IR Inten    --      0.7226                 2.5486                 0.8156

                     10                     11                     12
                      A                      A                      A
 Frequencies --     76.2005                76.9475                87.7334
 Red. masses --      3.3238                 2.9278                 2.9035
 Frc consts  --      0.0114                 0.0102                 0.0132
 IR Inten    --      3.2730                 3.8548                 5.0049

                     13                     14                     15
                      A                      A                      A
 Frequencies --     93.1896               101.4125               104.8087
 Red. masses --      3.5011                10.7820                 7.7398
 Frc consts  --      0.0179                 0.0653                 0.0501
 IR Inten    --      4.6033                 3.9595                 3.7556

                     16                     17                     18
                      A                      A                      A
 Frequencies --    115.0719               122.5766               154.3841
 Red. masses --      5.4893                 2.5557                 7.6572
 Frc consts  --      0.0428                 0.0226                 0.1075
 IR Inten    --      0.9550                 3.2915                 0.4423

                     19                     20                     21
                      A                      A                      A
 Frequencies --    162.3478               162.7843               173.6424
 Red. masses --      1.4243                 2.3274                 2.7890
 Frc consts  --      0.0221                 0.0363                 0.0495
 IR Inten    --      0.5313                 0.7298                 1.7801

                     22                     23                     24
                      A                      A                      A
 Frequencies --    181.2063               191.4362               196.0776
 Red. masses --      1.6818                 3.1703                 1.7526
 Frc consts  --      0.0325                 0.0685                 0.0397
 IR Inten    --      1.2936                 4.1423                 2.1406

                     25                     26                     27
                      A                      A                      A
 Frequencies --    207.0439               231.3924               238.2570
 Red. masses --      1.8256                 2.7376                10.3489
 Frc consts  --      0.0461                 0.0864                 0.3461
 IR Inten    --      1.8757                12.1162                 0.6760

                     28                     29                     30
                      A                      A                      A
 Frequencies --    250.5161               260.6643               264.6863
 Red. masses --      4.1745                 6.4134                 3.4368
 Frc consts  --      0.1544                 0.2567                 0.1419
 IR Inten    --      4.9886                10.2924                10.7629

                     31                     32                     33
                      A                      A                      A
 Frequencies --    284.9715               291.9179               296.7577
 Red. masses --     12.1270                 5.1423                 9.8784
 Frc consts  --      0.5802                 0.2582                 0.5126
 IR Inten    --      3.8416                10.6000                 4.3193

                     34                     35                     36
                      A                      A                      A
 Frequencies --    299.4687               319.1747               328.4888
 Red. masses --      7.5139                 5.3446                 4.1299
 Frc consts  --      0.3970                 0.3208                 0.2626
 IR Inten    --     10.1304                 0.2488                 4.6431

                     37                     38                     39
                      A                      A                      A
 Frequencies --    348.9777               358.1722               363.1330
 Red. masses --      7.4883                 6.3963                 4.7092
 Frc consts  --      0.5373                 0.4835                 0.3659
 IR Inten    --      1.2164                 4.3213                 7.2869

                     40                     41                     42
                      A                      A                      A
 Frequencies --    374.9599               417.8934               427.9777
 Red. masses --      9.4912                10.1838                 9.0177
 Frc consts  --      0.7862                 1.0478                 0.9732
 IR Inten    --     17.5716                18.1197                 7.3966

                     43                     44                     45
                      A                      A                      A
 Frequencies --    445.2170               457.9158               472.0735
 Red. masses --      2.1486                 5.7240                 8.7694
 Frc consts  --      0.2509                 0.7072                 1.1514
 IR Inten    --      8.5617                10.7687                23.0041

                     46                     47                     48
                      A                      A                      A
 Frequencies --    479.6252               498.5076               504.1136
 Red. masses --      4.1160                 7.8385                11.6145
 Frc consts  --      0.5579                 1.1477                 1.7390
 IR Inten    --      9.8448                16.5838                 2.2235

                     49                     50                     51
                      A                      A                      A
 Frequencies --    529.3480               536.6325               549.5340
 Red. masses --      5.4028                 7.2773                 5.1961
 Frc consts  --      0.8920                 1.2347                 0.9245
 IR Inten    --     45.9371                25.7370                11.5375

                     52                     53                     54
                      A                      A                      A
 Frequencies --    574.9389               577.4028               590.3376
 Red. masses --      9.8175                 4.3285                10.2314
 Frc consts  --      1.9120                 0.8502                 2.1008
 IR Inten    --     26.3346                34.7885               250.5736

                     55                     56                     57
                      A                      A                      A
 Frequencies --    616.2138               621.8685               652.0572
 Red. masses --      6.4975                 7.7797                 5.7574
 Frc consts  --      1.4536                 1.7726                 1.4423
 IR Inten    --     35.8741                 7.7009                12.4289

                     58                     59                     60
                      A                      A                      A
 Frequencies --    686.6889               687.9101               695.9413
 Red. masses --      8.1786                11.6338                 5.8533
 Frc consts  --      2.2722                 3.2437                 1.6703
 IR Inten    --      8.3855                51.2923                28.4167

                     61                     62                     63
                      A                      A                      A
 Frequencies --    719.6945               727.7790               749.2719
 Red. masses --      2.4040                10.2210                 5.3082
 Frc consts  --      0.7336                 3.1896                 1.7558
 IR Inten    --     32.2516                 1.1313                45.2888

                     64                     65                     66
                      A                      A                      A
 Frequencies --    834.8061               857.8568               868.5599
 Red. masses --      6.3400                 4.0092                11.6688
 Frc consts  --      2.6032                 1.7383                 5.1865
 IR Inten    --    221.7272                46.5530               399.3385

                     67                     68                     69
                      A                      A                      A
 Frequencies --    877.5340               901.6106               943.8304
 Red. masses --     11.8929                 4.2391                 1.7552
 Frc consts  --      5.3959                 2.0303                 0.9212
 IR Inten    --     22.9174               121.3315                71.0609

                     70                     71                     72
                      A                      A                      A
 Frequencies --    948.7981               970.3880               978.1800
 Red. masses --      2.5211                 1.4000                 1.3684
 Frc consts  --      1.3372                 0.7767                 0.7714
 IR Inten    --     14.8174                 2.1312                 3.5688

                     73                     74                     75
                      A                      A                      A
 Frequencies --    993.9670              1000.7064              1030.9567
 Red. masses --      4.6111                 3.9899                 5.9349
 Frc consts  --      2.6841                 2.3541                 3.7166
 IR Inten    --     18.1121                36.0989                13.5182

                     76                     77                     78
                      A                      A                      A
 Frequencies --   1035.8183              1049.2299              1065.6423
 Red. masses --      4.1155                 3.8876                 3.5393
 Frc consts  --      2.6016                 2.5216                 2.3681
 IR Inten    --     40.4939                12.3164               143.8874

                     79                     80                     81
                      A                      A                      A
 Frequencies --   1107.8749              1139.0730              1141.6581
 Red. masses --      2.8819                 9.3700                 2.8301
 Frc consts  --      2.0840                 7.1629                 2.1733
 IR Inten    --     15.6729                23.7871               112.3810

                     82                     83                     84
                      A                      A                      A
 Frequencies --   1145.0003              1152.0962              1153.7816
 Red. masses --      2.3454                 1.8067                 2.3202
 Frc consts  --      1.8117                 1.4129                 1.8198
 IR Inten    --     94.9635                19.6062                 4.7641

                     85                     86                     87
                      A                      A                      A
 Frequencies --   1161.4801              1176.7259              1184.6503
 Red. masses --      2.6466                 4.0405                 3.1356
 Frc consts  --      2.1036                 3.2964                 2.5927
 IR Inten    --    229.8175               453.8683                63.3664

                     88                     89                     90
                      A                      A                      A
 Frequencies --   1189.6765              1195.9245              1198.1418
 Red. masses --      2.7569                 1.3152                 1.2963
 Frc consts  --      2.2989                 1.1083                 1.0964
 IR Inten    --    232.9117                 8.0804                12.7821

                     91                     92                     93
                      A                      A                      A
 Frequencies --   1199.4159              1201.2223              1204.2344
 Red. masses --      1.3294                 8.3559                 1.3362
 Frc consts  --      1.1268                 7.1038                 1.1417
 IR Inten    --      4.8935               409.8318                17.4246

                     94                     95                     96
                      A                      A                      A
 Frequencies --   1209.7947              1217.6676              1220.4509
 Red. masses --      1.8832                 3.3759                12.4270
 Frc consts  --      1.6240                 2.9491                10.9058
 IR Inten    --    115.8089                82.8758               327.1064

                     97                     98                     99
                      A                      A                      A
 Frequencies --   1227.8040              1233.2086              1241.9827
 Red. masses --      3.6648                 1.8198                 7.1664
 Frc consts  --      3.2551                 1.6306                 6.5130
 IR Inten    --    116.9180               190.2133               127.4569

                    100                    101                    102
                      A                      A                      A
 Frequencies --   1242.5750              1250.4165              1254.9407
 Red. masses --      1.7343                 7.1141                 1.9598
 Frc consts  --      1.5777                 6.5536                 1.8184
 IR Inten    --     45.4408               299.4916                11.9850

                    103                    104                    105
                      A                      A                      A
 Frequencies --   1256.8718              1285.4333              1313.6795
 Red. masses --      2.0430                 1.7953                 1.8713
 Frc consts  --      1.9015                 1.7478                 1.9027
 IR Inten    --     73.7488                 8.0372               232.0566

                    106                    107                    108
                      A                      A                      A
 Frequencies --   1321.4899              1322.6616              1346.0336
 Red. masses --      2.6855                 1.4688                14.9920
 Frc consts  --      2.7631                 1.5139                16.0038
 IR Inten    --    557.6388                12.1934               365.0643

                    109                    110                    111
                      A                      A                      A
 Frequencies --   1355.6002              1365.5403              1379.0210
 Red. masses --      1.2064                 1.4782                 3.6364
 Frc consts  --      1.3062                 1.6240                 4.0744
 IR Inten    --     12.4554                 4.6816                 2.8428

                    112                    113                    114
                      A                      A                      A
 Frequencies --   1390.4335              1392.0700              1409.5890
 Red. masses --      1.2276                 1.2511                 1.2919
 Frc consts  --      1.3983                 1.4285                 1.5124
 IR Inten    --     25.7273                15.3243                15.3727

                    115                    116                    117
                      A                      A                      A
 Frequencies --   1411.0651              1422.6069              1435.1403
 Red. masses --      5.3180                 1.4755                 1.3126
 Frc consts  --      6.2386                 1.7594                 1.5928
 IR Inten    --    160.7676                15.7143                 7.1063

                    118                    119                    120
                      A                      A                      A
 Frequencies --   1449.5050              1453.0089              1463.9188
 Red. masses --      1.5560                 1.4011                 1.4139
 Frc consts  --      1.9262                 1.7428                 1.7852
 IR Inten    --     26.0192                15.4159                12.6887

                    121                    122                    123
                      A                      A                      A
 Frequencies --   1500.9398              1506.3497              1507.6724
 Red. masses --      1.0956                 1.1764                 1.1443
 Frc consts  --      1.4542                 1.5727                 1.5325
 IR Inten    --      2.1432                 1.7899                 3.0133

                    124                    125                    126
                      A                      A                      A
 Frequencies --   1509.6803              1516.3516              1518.4036
 Red. masses --      1.1557                 1.0511                 4.0195
 Frc consts  --      1.5520                 1.4239                 5.4601
 IR Inten    --      4.1768                 3.1764                 4.3374

                    127                    128                    129
                      A                      A                      A
 Frequencies --   1518.9619              1520.5167              1526.0884
 Red. masses --      1.0684                 1.0576                 1.1303
 Frc consts  --      1.4523                 1.4407                 1.5510
 IR Inten    --      4.0371                 8.9559                 2.4387

                    130                    131                    132
                      A                      A                      A
 Frequencies --   1527.9260              1529.0179              1536.3217
 Red. masses --      1.0960                 4.3636                 1.0575
 Frc consts  --      1.5075                 6.0107                 1.4707
 IR Inten    --      5.1299                 0.5080                12.9977

                    133                    134                    135
                      A                      A                      A
 Frequencies --   1545.1128              1545.3791              1547.6312
 Red. masses --      1.0507                 1.0506                 1.0634
 Frc consts  --      1.4779                 1.4782                 1.5007
 IR Inten    --      4.8686                11.5088                 9.2702

                    136                    137                    138
                      A                      A                      A
 Frequencies --   1695.8206              1714.7377              3041.9102
 Red. masses --      6.6279                 6.3374                 1.0822
 Frc consts  --     11.2302                10.9789                 5.9002
 IR Inten    --     22.7071                26.6625                23.8900

                    139                    140                    141
                      A                      A                      A
 Frequencies --   3053.4792              3055.6684              3059.4067
 Red. masses --      1.0362                 1.0404                 1.0357
 Frc consts  --      5.6924                 5.7237                 5.7118
 IR Inten    --     68.3497                50.1319                58.2933

                    142                    143                    144
                      A                      A                      A
 Frequencies --   3064.5170              3073.5813              3080.9758
 Red. masses --      1.0337                 1.0839                 1.0810
 Frc consts  --      5.7194                 6.0328                 6.0457
 IR Inten    --     48.2620                20.1837                 4.9673

                    145                    146                    147
                      A                      A                      A
 Frequencies --   3096.6288              3099.9121              3114.6874
 Red. masses --      1.0736                 1.0761                 1.1068
 Frc consts  --      6.0655                 6.0928                 6.3264
 IR Inten    --     12.9286                78.0424                55.3136

                    148                    149                    150
                      A                      A                      A
 Frequencies --   3133.7671              3134.0876              3136.6114
 Red. masses --      1.1033                 1.1023                 1.0955
 Frc consts  --      6.3840                 6.3791                 6.3502
 IR Inten    --     30.0032                55.8311                43.6755

                    151                    152                    153
                      A                      A                      A
 Frequencies --   3162.9328              3171.5339              3175.4825
 Red. masses --      1.1027                 1.1049                 1.1048
 Frc consts  --      6.4998                 6.5483                 6.5640
 IR Inten    --     16.7669                42.2310                33.8672

                    154                    155                    156
                      A                      A                      A
 Frequencies --   3177.4060              3184.2052              3187.3650
 Red. masses --      1.1061                 1.0908                 1.0988
 Frc consts  --      6.5794                 6.5163                 6.5772
 IR Inten    --     31.9054                18.0774                17.2407

                    157                    158                    159
                      A                      A                      A
 Frequencies --   3264.2434              3266.3925              3274.6599
 Red. masses --      1.0926                 1.0928                 1.0929
 Frc consts  --      6.8595                 6.8698                 6.9051
 IR Inten    --      2.0655                 8.3493                 9.2697

 - Thermochemistry -
 -------------------
 Temperature   298.150 Kelvin.  Pressure   1.00000 Atm.
 Atom     1 has atomic number  6 and mass  12.00000

 Molecular mass:   512.09396 amu.
 Principal axes and moments of inertia in atomic units:
                           1         2         3
     Eigenvalues --  ******************************
           X            0.99995   0.00231   0.01005
           Y           -0.00438   0.97733   0.21170
           Z           -0.00933  -0.21173   0.97728
 This molecule is an asymmetric top.
 Rotational symmetry number  1.
 Warning -- assumption of classical behavior for rotation
           may cause significant error
 Rotational temperatures (Kelvin)      0.00727     0.00408     0.00395
 Rotational constants (GHZ):           0.15146     0.08491     0.08238
 Zero-point vibrational energy    1096600.4 (Joules/Mol)
                                  262.09379 (Kcal/Mol)
 Warning -- explicit consideration of  55 degrees of freedom as
           vibrations may cause significant error
 Vibrational temperatures:     18.08    25.00    32.33    36.11    51.07
          (Kelvin)             66.56    79.77    84.48    98.97   109.64
                              110.71   126.23   134.08   145.91   150.80
                              165.56   176.36   222.12   233.58   234.21
                              249.83   260.72   275.43   282.11   297.89
                              332.92   342.80   360.44   375.04   380.82
                              410.01   420.00   426.97   430.87   459.22
                              472.62   502.10   515.33   522.47   539.48
                              601.26   615.76   640.57   658.84   679.21
                              690.07   717.24   725.31   761.61   772.09
                              790.66   827.21   830.75   849.36   886.59
                              894.73   938.16   987.99   989.75  1001.30
                             1035.48  1047.11  1078.04  1201.10  1234.26
                             1249.66  1262.58  1297.22  1357.96  1365.11
                             1396.17  1407.38  1430.10  1439.79  1483.32
                             1490.31  1509.61  1533.22  1593.98  1638.87
                             1642.59  1647.40  1657.61  1660.03  1671.11
                             1693.05  1704.45  1711.68  1720.67  1723.86
                             1725.69  1728.29  1732.62  1740.62  1751.95
                             1755.96  1766.54  1774.31  1786.94  1787.79
                             1799.07  1805.58  1808.36  1849.45  1890.09
                             1901.33  1903.02  1936.64  1950.41  1964.71
                             1984.10  2000.52  2002.88  2028.08  2030.21
                             2046.81  2064.85  2085.51  2090.56  2106.25
                             2159.52  2167.30  2169.20  2172.09  2181.69
                             2184.64  2185.45  2187.68  2195.70  2198.34
                             2199.92  2210.42  2223.07  2223.46  2226.70
                             2439.91  2467.13  4376.63  4393.28  4396.43
                             4401.80  4409.16  4422.20  4432.84  4455.36
                             4460.08  4481.34  4508.79  4509.25  4512.88
                             4550.75  4563.13  4568.81  4571.58  4581.36
                             4585.91  4696.52  4699.61  4711.51

 Zero-point correction=                           0.417673 (Hartree/Particle)
 Thermal correction to Energy=                    0.450810
 Thermal correction to Enthalpy=                  0.451754
 Thermal correction to Gibbs Free Energy=         0.348849
 Sum of electronic and zero-point Energies=          -2297.038289
 Sum of electronic and thermal Energies=             -2297.005152
 Sum of electronic and thermal Enthalpies=           -2297.004208
 Sum of electronic and thermal Free Energies=        -2297.107113

                     E (Thermal)             CV                S
                      KCal/Mol        Cal/Mol-Kelvin    Cal/Mol-Kelvin
 Total                  282.888            119.246            216.583
 Electronic               0.000              0.000              0.000
 Translational            0.889              2.981             44.587
 Rotational               0.889              2.981             36.960
 Vibrational            281.110            113.284            135.036
 Vibration     1          0.593              1.987              7.557
 Vibration     2          0.593              1.986              6.913
 Vibration     3          0.593              1.985              6.403
 Vibration     4          0.593              1.985              6.184
 Vibration     5          0.594              1.982              5.496
 Vibration     6          0.595              1.979              4.971
 Vibration     7          0.596              1.975              4.613
 Vibration     8          0.596              1.974              4.500
 Vibration     9          0.598              1.969              4.188
 Vibration    10          0.599              1.965              3.986
 Vibration    11          0.599              1.965              3.967
 Vibration    12          0.601              1.958              3.710
 Vibration    13          0.602              1.954              3.592
 Vibration    14          0.604              1.948              3.427
 Vibration    15          0.605              1.945              3.363
 Vibration    16          0.608              1.937              3.182
 Vibration    17          0.610              1.930              3.059
 Vibration    18          0.620              1.898              2.617
 Vibration    19          0.622              1.889              2.522
 Vibration    20          0.623              1.888              2.517
 Vibration    21          0.627              1.875              2.396
 Vibration    22          0.630              1.865              2.316
 Vibration    23          0.634              1.852              2.214
 Vibration    24          0.636              1.845              2.170
 Vibration    25          0.641              1.830              2.070
 Vibration    26          0.653              1.793              1.868
 Vibration    27          0.656              1.782              1.816
 Vibration    28          0.663              1.762              1.727
 Vibration    29          0.669              1.745              1.657
 Vibration    30          0.671              1.738              1.631
 Vibration    31          0.683              1.702              1.504
 Vibration    32          0.687              1.689              1.463
 Vibration    33          0.690              1.680              1.435
 Vibration    34          0.692              1.675              1.420
 Vibration    35          0.705              1.637              1.314
 Vibration    36          0.712              1.619              1.268
 Vibration    37          0.726              1.577              1.171
 Vibration    38          0.733              1.558              1.130
 Vibration    39          0.737              1.548              1.109
 Vibration    40          0.746              1.523              1.059
 Vibration    41          0.781              1.431              0.899
 Vibration    42          0.789              1.409              0.865
 Vibration    43          0.805              1.371              0.810
 Vibration    44          0.816              1.343              0.772
 Vibration    45          0.829              1.312              0.732
 Vibration    46          0.836              1.295              0.711
 Vibration    47          0.854              1.253              0.662
 Vibration    48          0.859              1.241              0.648
 Vibration    49          0.884              1.185              0.589
 Vibration    50          0.892              1.169              0.573
 Vibration    51          0.905              1.141              0.545
 Vibration    52          0.931              1.085              0.495
 Vibration    53          0.934              1.080              0.490
 Vibration    54          0.948              1.052              0.467
 Vibration    55          0.976              0.998              0.423

                           ! Non-Optimized Parameters !
 Normal termination of Gaussian 16 at Sat Jun 15 08:57:07 2019.
