 Gaussian 16, Revision A.03,
 Gaussian 16:  AS64L-G16RevA.03 25-Dec-2016

 ----------------------------------------------------------------------
 #p opt freq=noraman b3lyp/6-31g(d) scrf=(solvent=tetrahydrofuran,pcm)
 pop=none empiricaldispersion=gd3bj extrabasis
 ----------------------------------------------------------------------

 -----
 title
 -----
 Symbolic Z-matrix:
 Charge =  0 Multiplicity = 1

 SCF Done:  E(RB3LYP) =  -2298.20784180     A.U. after   13 cycles
 SCF Done:  E(RB3LYP) =  -2298.20784191     A.U. after    6 cycles
 SCF Done:  E(RB3LYP) =  -2298.20784181     A.U. after    6 cycles
 Optimization completed.
    -- Stationary point found.
 Normal termination of Gaussian 16 at Sat Jun 15 07:11:54 2019.

 ------------------------------------------------------------------
 #P Geom=AllCheck Guess=TCheck SCRF=Check GenChk RB3LYP/ChkBas Freq
 ------------------------------------------------------------------

 Structure from the checkpoint file:  "/scratch/users/ekwan/clay_new-glu_gluC6-bisCF3-sm-b3lyp_d3bj-custom-pcm_thf/Gau-6885.chk"
 -----
 title
 -----
 Charge =  0 Multiplicity = 1

                         Standard orientation:
 ---------------------------------------------------------------------
 Center     Atomic      Atomic             Coordinates (Angstroms)
 Number     Number       Type             X           Y           Z
 ---------------------------------------------------------------------
      1          6           0        3.374508    0.383439    0.614797
      2          6           0        3.318131   -0.479507   -0.648583
      3          6           0        1.866481   -0.817957   -1.026026
      4          6           0        1.006687    1.117132    0.092104
      5          6           0        2.413738    1.566166    0.492548
      6          1           0        1.796893   -1.318263   -1.991115
      7          1           0        3.714809    0.117258   -1.485148
      8          1           0        3.078760   -0.219950    1.483469
      9          1           0        0.574486    0.523703    0.907729
     10          1           0        2.791120    2.249148   -0.277393
     11          8           0        1.051574    0.301528   -1.102479
     12          8           0        1.394886   -1.750681    0.000487
     13          8           0        4.109188   -1.628359   -0.450359
     14          8           0        4.677729    0.911583    0.801351
     15          8           0        2.298369    2.233414    1.739696
     16          6           0        0.075074    2.296436   -0.170064
     17          1           0       -0.125318    2.769620    0.794366
     18          1           0       -0.871752    1.926159   -0.582329
     19          8           0        0.618844    3.307032   -0.999218
     20         16           0        0.099162   -2.682833   -0.333401
     21          8           0        0.090986   -3.680719    0.732168
     22          8           0        0.149672   -3.078187   -1.742948
     23          6           0       -1.280380   -1.572259   -0.099354
     24          6           0       -1.738418   -1.335854    1.193464
     25          6           0       -1.825817   -0.933034   -1.209462
     26          6           0       -2.782513   -0.427867    1.371713
     27          1           0       -1.291782   -1.844302    2.039537
     28          6           0       -2.866792   -0.030935   -1.007196
     29          1           0       -1.444623   -1.131709   -2.202531
     30          6           0       -3.347467    0.225730    0.277999
     31          1           0       -4.153602    0.934578    0.425982
     32          6           0        4.433847   -2.335321   -1.642698
     33          1           0        3.559646   -2.843817   -2.069127
     34          1           0        4.861575   -1.660449   -2.396852
     35          1           0        5.176339   -3.086156   -1.366436
     36          6           0        5.500947    0.162457    1.688167
     37          1           0        6.444145    0.708318    1.770455
     38          1           0        5.041904    0.089801    2.684271
     39          1           0        5.691184   -0.845207    1.305370
     40          6           0        2.984615    3.479438    1.795242
     41          1           0        2.804614    3.890420    2.791803
     42          1           0        4.061159    3.344112    1.643837
     43          1           0        2.593874    4.175742    1.041153
     44          6           0        0.572629    3.016861   -2.392597
     45          1           0        0.820962    3.945170   -2.913290
     46          1           0       -0.433192    2.692216   -2.691522
     47          1           0        1.290319    2.238503   -2.674387
     48          6           0       -3.335164   -0.191877    2.753865
     49          9           0       -2.386242   -0.350318    3.698788
     50          9           0       -4.331776   -1.058052    3.038333
     51          9           0       -3.839926    1.052556    2.878774
     52          6           0       -3.426435    0.744434   -2.170275
     53          9           0       -2.884320    1.987967   -2.228384
     54          9           0       -4.759951    0.906306   -2.064140
     55          9           0       -3.171132    0.143833   -3.347247
 ---------------------------------------------------------------------

 SCF Done:  E(RB3LYP) =  -2298.20784181     A.U. after    1 cycles

 Isotropic polarizability for W=    0.000000      282.38 Bohr**3.
 End of Minotr F.D. properties file   721 does not exist.

                      1                      2                      3
                      A                      A                      A
 Frequencies --     14.8951                16.3636                21.4568
 Red. masses --      9.1398                 8.1440                15.2323
 Frc consts  --      0.0012                 0.0013                 0.0041
 IR Inten    --      0.2258                 0.0530                 0.0284

                      4                      5                      6
                      A                      A                      A
 Frequencies --     23.1799                34.9979                43.1973
 Red. masses --     10.0610                 4.8623                 5.4998
 Frc consts  --      0.0032                 0.0035                 0.0060
 IR Inten    --      0.1480                 0.2580                 1.0432

                      7                      8                      9
                      A                      A                      A
 Frequencies --     52.0156                56.4335                65.1328
 Red. masses --      3.5531                 3.6657                 3.7802
 Frc consts  --      0.0057                 0.0069                 0.0094
 IR Inten    --      0.7231                 1.9149                 3.2186

                     10                     11                     12
                      A                      A                      A
 Frequencies --     70.8081                74.1142                84.0160
 Red. masses --      3.0730                 3.3667                 3.0330
 Frc consts  --      0.0091                 0.0109                 0.0126
 IR Inten    --      2.0260                 4.1853                 3.8477

                     13                     14                     15
                      A                      A                      A
 Frequencies --     94.1964                99.8783               103.8468
 Red. masses --      3.5669                11.2325                 8.2171
 Frc consts  --      0.0186                 0.0660                 0.0522
 IR Inten    --      3.6867                 4.0084                 3.5861

                     16                     17                     18
                      A                      A                      A
 Frequencies --    114.8009               124.2198               153.1541
 Red. masses --      6.9900                 2.4449                 7.5463
 Frc consts  --      0.0543                 0.0222                 0.1043
 IR Inten    --      0.6596                 3.3498                 0.5120

                     19                     20                     21
                      A                      A                      A
 Frequencies --    159.3488               164.4752               171.1693
 Red. masses --      2.1096                 2.1657                 2.2411
 Frc consts  --      0.0316                 0.0345                 0.0387
 IR Inten    --      1.5693                 0.2001                 1.6127

                     22                     23                     24
                      A                      A                      A
 Frequencies --    180.6819               191.8992               196.6014
 Red. masses --      1.8109                 2.5766                 1.8794
 Frc consts  --      0.0348                 0.0559                 0.0428
 IR Inten    --      0.5077                 4.8658                 4.1849

                     25                     26                     27
                      A                      A                      A
 Frequencies --    207.8409               229.2528               235.3678
 Red. masses --      1.7552                 2.3327                10.3407
 Frc consts  --      0.0447                 0.0722                 0.3375
 IR Inten    --      1.1778                10.1014                 0.6728

                     28                     29                     30
                      A                      A                      A
 Frequencies --    246.7297               255.3968               264.2810
 Red. masses --      4.8053                 5.1757                 3.4892
 Frc consts  --      0.1723                 0.1989                 0.1436
 IR Inten    --      3.0047                10.2394                10.9500

                     31                     32                     33
                      A                      A                      A
 Frequencies --    280.2877               288.6544               293.6690
 Red. masses --     11.3879                 5.3879                 8.1191
 Frc consts  --      0.5271                 0.2645                 0.4125
 IR Inten    --      4.0967                13.4023                 4.3126

                     34                     35                     36
                      A                      A                      A
 Frequencies --    294.6932               315.7201               324.9052
 Red. masses --      8.2425                 5.3625                 4.1290
 Frc consts  --      0.4217                 0.3149                 0.2568
 IR Inten    --      6.5876                 0.3195                 4.1023

                     37                     38                     39
                      A                      A                      A
 Frequencies --    343.0855               352.3884               358.8792
 Red. masses --      7.4392                 7.0402                 4.3859
 Frc consts  --      0.5159                 0.5151                 0.3328
 IR Inten    --      1.3360                 8.0138                 6.2772

                     40                     41                     42
                      A                      A                      A
 Frequencies --    366.7912               411.1058               421.8613
 Red. masses --      9.6130                10.3582                 9.0994
 Frc consts  --      0.7620                 1.0314                 0.9541
 IR Inten    --     18.8221                18.3277                 8.5022

                     43                     44                     45
                      A                      A                      A
 Frequencies --    436.0557               451.1817               463.1280
 Red. masses --      2.1662                 5.9680                 9.1035
 Frc consts  --      0.2427                 0.7158                 1.1504
 IR Inten    --      8.5487                11.1257                27.5604

                     46                     47                     48
                      A                      A                      A
 Frequencies --    472.5684               488.3273               495.4885
 Red. masses --      4.1344                 7.7618                11.7960
 Frc consts  --      0.5440                 1.0905                 1.7063
 IR Inten    --      8.0446                14.2370                 1.7126

                     49                     50                     51
                      A                      A                      A
 Frequencies --    519.9404               527.0682               540.7536
 Red. masses --      6.6026                 6.5869                 4.9733
 Frc consts  --      1.0517                 1.0781                 0.8568
 IR Inten    --     51.8325                10.9816                25.1448

                     52                     53                     54
                      A                      A                      A
 Frequencies --    564.5023               569.4048               576.8033
 Red. masses --     11.0907                 4.2210                 8.8129
 Frc consts  --      2.0823                 0.8063                 1.7275
 IR Inten    --     40.6584                48.4757               196.1251

                     55                     56                     57
                      A                      A                      A
 Frequencies --    604.2745               611.3834               642.7773
 Red. masses --      6.5350                 8.0369                 5.7611
 Frc consts  --      1.4059                 1.7700                 1.4024
 IR Inten    --     30.2833                 4.5977                10.5305

                     58                     59                     60
                      A                      A                      A
 Frequencies --    673.0453               677.2365               677.6569
 Red. masses --      7.7541                 6.5395                13.0179
 Frc consts  --      2.0695                 1.7672                 3.5222
 IR Inten    --      2.3180                55.7205                56.0816

                     61                     62                     63
                      A                      A                      A
 Frequencies --    708.2036               714.2829               735.0250
 Red. masses --      2.5715                10.7418                 5.0651
 Frc consts  --      0.7599                 3.2290                 1.6123
 IR Inten    --     25.8441                 0.8181                82.0814

                     64                     65                     66
                      A                      A                      A
 Frequencies --    793.8251               827.9442               839.9436
 Red. masses --      9.4374                 4.1861                 8.1568
 Frc consts  --      3.5039                 1.6907                 3.3905
 IR Inten    --    513.8931                82.9638                64.1339

                     67                     68                     69
                      A                      A                      A
 Frequencies --    859.4948               874.4544               920.0833
 Red. masses --     11.8513                 4.2520                 1.7100
 Frc consts  --      5.1582                 1.9156                 0.8529
 IR Inten    --     29.6404                48.6558                76.1035

                     70                     71                     72
                      A                      A                      A
 Frequencies --    924.6051               948.5924               953.2976
 Red. masses --      2.6979                 1.3854                 1.3606
 Frc consts  --      1.3589                 0.7345                 0.7285
 IR Inten    --     19.0810                 0.6242                 2.7851

                     73                     74                     75
                      A                      A                      A
 Frequencies --    965.2839               975.3456              1006.2493
 Red. masses --      4.9001                 4.2440                 4.1656
 Frc consts  --      2.6901                 2.3787                 2.4851
 IR Inten    --     14.1202                31.8273                49.9629

                     76                     77                     78
                      A                      A                      A
 Frequencies --   1019.3522              1021.4313              1042.4062
 Red. masses --      4.7740                 5.5699                 3.5190
 Frc consts  --      2.9227                 3.4238                 2.2529
 IR Inten    --     12.0660                 5.4402               140.6830

                     79                     80                     81
                      A                      A                      A
 Frequencies --   1083.3446              1109.1448              1119.5019
 Red. masses --      3.1016                11.4512                 3.1569
 Frc consts  --      2.1447                 8.3000                 2.3311
 IR Inten    --     17.6811                57.3455               156.0419

                     82                     83                     84
                      A                      A                      A
 Frequencies --   1121.4781              1129.6760              1132.0067
 Red. masses --      4.1626                 3.1185                 3.9557
 Frc consts  --      3.0846                 2.3448                 2.9865
 IR Inten    --    170.1438                16.7381               308.5049

                     85                     86                     87
                      A                      A                      A
 Frequencies --   1135.9986              1146.3342              1148.7131
 Red. masses --      2.1318                 2.7612                 3.9454
 Frc consts  --      1.6209                 2.1378                 3.0674
 IR Inten    --     34.8724               423.7938                97.0871

                     88                     89                     90
                      A                      A                      A
 Frequencies --   1156.8797              1159.0096              1173.6058
 Red. masses --      3.5494                 7.8385                 3.4866
 Frc consts  --      2.7988                 6.2038                 2.8294
 IR Inten    --    183.5247               423.9716                95.3323

                     91                     92                     93
                      A                      A                      A
 Frequencies --   1175.9760              1184.1736              1185.2459
 Red. masses --     11.6527                 1.9931                 2.6040
 Frc consts  --      9.4945                 1.6467                 2.1553
 IR Inten    --    314.3587                75.3840               104.1796

                     94                     95                     96
                      A                      A                      A
 Frequencies --   1188.5923              1190.6569              1191.2372
 Red. masses --      1.3205                 1.3319                 2.0171
 Frc consts  --      1.0991                 1.1125                 1.6865
 IR Inten    --      9.0887                17.3378                47.3604

                     97                     98                     99
                      A                      A                      A
 Frequencies --   1195.0251              1205.0425              1212.2328
 Red. masses --      1.3267                 6.8359                 5.7864
 Frc consts  --      1.1163                 5.8486                 5.0099
 IR Inten    --     19.9747               157.7451               239.4511

                    100                    101                    102
                      A                      A                      A
 Frequencies --   1218.1117              1226.1390              1233.9887
 Red. masses --      1.3867                 1.4849                 1.6781
 Frc consts  --      1.2123                 1.3153                 1.5056
 IR Inten    --     46.5371                29.6146                17.1352

                    103                    104                    105
                      A                      A                      A
 Frequencies --   1241.1307              1271.6982              1288.1786
 Red. masses --      1.6218                 1.7133                 3.4706
 Frc consts  --      1.4719                 1.6325                 3.3931
 IR Inten    --     19.1705                 7.3824               829.8874

                    106                    107                    108
                      A                      A                      A
 Frequencies --   1306.0981              1310.5109              1315.8158
 Red. masses --      6.8444                 1.4703                 1.5600
 Frc consts  --      6.8792                 1.4878                 1.5914
 IR Inten    --    204.9927                 7.2642                88.8445

                    109                    110                    111
                      A                      A                      A
 Frequencies --   1342.8378              1348.4726              1374.3888
 Red. masses --      1.3301                 1.2556                 2.4732
 Frc consts  --      1.4131                 1.3452                 2.7525
 IR Inten    --      2.7766                11.1452               107.2866

                    112                    113                    114
                      A                      A                      A
 Frequencies --   1376.0396              1378.0985              1380.8075
 Red. masses --      1.6133                 1.3584                 3.7867
 Frc consts  --      1.7998                 1.5200                 4.2537
 IR Inten    --     62.6309                17.0802                32.1763

                    115                    116                    117
                      A                      A                      A
 Frequencies --   1394.7857              1403.5215              1420.1477
 Red. masses --      1.2542                 1.4234                 1.2934
 Frc consts  --      1.4376                 1.6520                 1.5369
 IR Inten    --      2.2930                11.7391                 5.4631

                    118                    119                    120
                      A                      A                      A
 Frequencies --   1429.3210              1437.5708              1447.5188
 Red. masses --      1.4122                 1.3074                 1.3289
 Frc consts  --      1.6998                 1.5919                 1.6406
 IR Inten    --     27.4106                13.0906                12.2975

                    121                    122                    123
                      A                      A                      A
 Frequencies --   1489.7358              1492.5466              1496.8384
 Red. masses --      3.5941                 1.1087                 1.1637
 Frc consts  --      4.6995                 1.4552                 1.5361
 IR Inten    --      6.2887                 2.1302                 1.2318

                    124                    125                    126
                      A                      A                      A
 Frequencies --   1498.1075              1500.1413              1502.2271
 Red. masses --      1.1508                 1.1352                 4.0707
 Frc consts  --      1.5218                 1.5051                 5.4123
 IR Inten    --      1.5405                 4.5263                 1.4759

                    127                    128                    129
                      A                      A                      A
 Frequencies --   1507.7058              1511.1235              1511.9299
 Red. masses --      1.0513                 1.0604                 1.0598
 Frc consts  --      1.4080                 1.4267                 1.4273
 IR Inten    --      1.9552                 6.9952                 5.4917

                    130                    131                    132
                      A                      A                      A
 Frequencies --   1516.3039              1518.2098              1529.9783
 Red. masses --      1.1163                 1.0899                 1.0492
 Frc consts  --      1.5122                 1.4801                 1.4471
 IR Inten    --      1.2617                 6.1657                11.2252

                    133                    134                    135
                      A                      A                      A
 Frequencies --   1536.9884              1537.3826              1539.4793
 Red. masses --      1.0500                 1.0507                 1.0599
 Frc consts  --      1.4614                 1.4632                 1.4799
 IR Inten    --      4.5856                10.3005                 8.7524

                    136                    137                    138
                      A                      A                      A
 Frequencies --   1652.7847              1673.8602              3009.5317
 Red. masses --      6.1871                 5.8869                 1.0817
 Frc consts  --      9.9579                 9.7180                 5.7721
 IR Inten    --     15.4955                19.6980                30.3992

                    139                    140                    141
                      A                      A                      A
 Frequencies --   3024.2152              3025.2852              3030.7727
 Red. masses --      1.0366                 1.0402                 1.0352
 Frc consts  --      5.5860                 5.6091                 5.6023
 IR Inten    --    100.1113                38.4022                67.2057

                    142                    143                    144
                      A                      A                      A
 Frequencies --   3035.9035              3047.0063              3054.8614
 Red. masses --      1.0332                 1.0833                 1.0797
 Frc consts  --      5.6106                 5.9259                 5.9368
 IR Inten    --     53.6552                22.7582                 4.1633

                    145                    146                    147
                      A                      A                      A
 Frequencies --   3069.2148              3074.0505              3082.3099
 Red. masses --      1.0669                 1.0829                 1.1060
 Frc consts  --      5.9214                 6.0294                 6.1907
 IR Inten    --     26.3689                83.2647                61.4246

                    148                    149                    150
                      A                      A                      A
 Frequencies --   3100.9898              3101.2396              3104.2783
 Red. masses --      1.1030                 1.1021                 1.0935
 Frc consts  --      6.2490                 6.2450                 6.2085
 IR Inten    --     26.6723                71.6979                51.0462

                    151                    152                    153
                      A                      A                      A
 Frequencies --   3134.7771              3141.3676              3143.9365
 Red. masses --      1.1016                 1.1039                 1.1037
 Frc consts  --      6.3782                 6.4183                 6.4277
 IR Inten    --     19.3606                49.1022                40.7352

                    154                    155                    156
                      A                      A                      A
 Frequencies --   3145.9712              3155.8416              3159.6113
 Red. masses --      1.1053                 1.0977                 1.0902
 Frc consts  --      6.4452                 6.4410                 6.4126
 IR Inten    --     37.6671                34.2925                 9.2455

                    157                    158                    159
                      A                      A                      A
 Frequencies --   3243.8491              3244.0210              3258.9762
 Red. masses --      1.0922                 1.0917                 1.0920
 Frc consts  --      6.7715                 6.7691                 6.8336
 IR Inten    --      0.6989                 6.0870                 6.8344

 - Thermochemistry -
 -------------------
 Temperature   298.150 Kelvin.  Pressure   1.00000 Atm.
 Atom     1 has atomic number  6 and mass  12.00000

 Molecular mass:   512.09396 amu.
 Principal axes and moments of inertia in atomic units:
                           1         2         3
     Eigenvalues --  ******************************
           X            0.99995   0.00570   0.00822
           Y           -0.00733   0.97660   0.21495
           Z           -0.00680  -0.21500   0.97659
 This molecule is an asymmetric top.
 Rotational symmetry number  1.
 Warning -- assumption of classical behavior for rotation
           may cause significant error
 Rotational temperatures (Kelvin)      0.00722     0.00407     0.00400
 Rotational constants (GHZ):           0.15044     0.08480     0.08341
 Zero-point vibrational energy    1081517.6 (Joules/Mol)
                                  258.48891 (Kcal/Mol)
 Warning -- explicit consideration of  56 degrees of freedom as
           vibrations may cause significant error
 Vibrational temperatures:     21.43    23.54    30.87    33.35    50.35
          (Kelvin)             62.15    74.84    81.20    93.71   101.88
                              106.63   120.88   135.53   143.70   149.41
                              165.17   178.72   220.35   229.27   236.64
                              246.27   259.96   276.10   282.87   299.04
                              329.84   338.64   354.99   367.46   380.24
                              403.27   415.31   422.52   424.00   454.25
                              467.47   493.62   507.01   516.35   527.73
                              591.49   606.96   627.39   649.15   666.34
                              679.92   702.59   712.90   748.08   758.33
                              778.02   812.19   819.25   829.89   869.42
                              879.64   924.81   968.36   974.39   975.00
                             1018.95  1027.69  1057.54  1142.14  1191.23
                             1208.49  1236.62  1258.14  1323.79  1330.30
                             1364.81  1371.58  1388.83  1403.30  1447.77
                             1466.62  1469.61  1499.79  1558.69  1595.81
                             1610.71  1613.56  1625.35  1628.71  1634.45
                             1649.32  1652.74  1664.49  1667.56  1688.56
                             1691.97  1703.76  1705.30  1710.12  1713.09
                             1713.92  1719.37  1733.79  1744.13  1752.59
                             1764.14  1775.43  1785.71  1829.69  1853.40
                             1879.18  1885.53  1893.17  1932.04  1940.15
                             1977.44  1979.81  1982.78  1986.67  2006.79
                             2019.35  2043.28  2056.47  2068.34  2082.66
                             2143.40  2147.44  2153.62  2155.44  2158.37
                             2161.37  2169.25  2174.17  2175.33  2181.62
                             2184.37  2201.30  2211.38  2211.95  2214.97
                             2377.99  2408.31  4330.04  4351.17  4352.71
                             4360.61  4367.99  4383.96  4395.26  4415.92
                             4422.87  4434.76  4461.63  4461.99  4466.36
                             4510.25  4519.73  4523.42  4526.35  4540.55
                             4545.98  4667.18  4667.42  4688.94

 Zero-point correction=                           0.411928 (Hartree/Particle)
 Thermal correction to Energy=                    0.445472
 Thermal correction to Enthalpy=                  0.446417
 Thermal correction to Gibbs Free Energy=         0.342564
 Sum of electronic and zero-point Energies=          -2297.795914
 Sum of electronic and thermal Energies=             -2297.762369
 Sum of electronic and thermal Enthalpies=           -2297.761425
 Sum of electronic and thermal Free Energies=        -2297.865278

                     E (Thermal)             CV                S
                      KCal/Mol        Cal/Mol-Kelvin    Cal/Mol-Kelvin
 Total                  279.538            120.974            218.576
 Electronic               0.000              0.000              0.000
 Translational            0.889              2.981             44.587
 Rotational               0.889              2.981             36.955
 Vibrational            277.761            115.013            137.034
 Vibration     1          0.593              1.986              7.219
 Vibration     2          0.593              1.986              7.033
 Vibration     3          0.593              1.985              6.495
 Vibration     4          0.593              1.985              6.341
 Vibration     5          0.594              1.982              5.524
 Vibration     6          0.595              1.980              5.107
 Vibration     7          0.596              1.977              4.739
 Vibration     8          0.596              1.975              4.578
 Vibration     9          0.597              1.971              4.295
 Vibration    10          0.598              1.968              4.131
 Vibration    11          0.599              1.966              4.041
 Vibration    12          0.601              1.960              3.795
 Vibration    13          0.603              1.953              3.571
 Vibration    14          0.604              1.949              3.457
 Vibration    15          0.605              1.946              3.381
 Vibration    16          0.608              1.937              3.186
 Vibration    17          0.610              1.929              3.034
 Vibration    18          0.619              1.899              2.633
 Vibration    19          0.621              1.892              2.558
 Vibration    20          0.623              1.886              2.498
 Vibration    21          0.626              1.878              2.423
 Vibration    22          0.630              1.866              2.321
 Vibration    23          0.634              1.851              2.209
 Vibration    24          0.636              1.845              2.165
 Vibration    25          0.641              1.829              2.063
 Vibration    26          0.652              1.796              1.885
 Vibration    27          0.655              1.787              1.838
 Vibration    28          0.661              1.768              1.754
 Vibration    29          0.666              1.754              1.693
 Vibration    30          0.671              1.738              1.633
 Vibration    31          0.680              1.710              1.532
 Vibration    32          0.685              1.695              1.482
 Vibration    33          0.688              1.686              1.453
 Vibration    34          0.689              1.684              1.447
 Vibration    35          0.703              1.644              1.332
 Vibration    36          0.709              1.626              1.285
 Vibration    37          0.722              1.589              1.198
 Vibration    38          0.729              1.570              1.155
 Vibration    39          0.734              1.557              1.127
 Vibration    40          0.740              1.541              1.093
 Vibration    41          0.775              1.446              0.923
 Vibration    42          0.784              1.423              0.886
 Vibration    43          0.797              1.392              0.839
 Vibration    44          0.810              1.358              0.792
 Vibration    45          0.821              1.332              0.757
 Vibration    46          0.829              1.311              0.730
 Vibration    47          0.844              1.276              0.688
 Vibration    48          0.851              1.260              0.669
 Vibration    49          0.875              1.206              0.610
 Vibration    50          0.882              1.190              0.594
 Vibration    51          0.896              1.160              0.564
 Vibration    52          0.920              1.108              0.515
 Vibration    53          0.925              1.097              0.505
 Vibration    54          0.933              1.081              0.491
 Vibration    55          0.963              1.023              0.442
 Vibration    56          0.971              1.008              0.430

 Optimization completed.
    -- Stationary point found.
 Normal termination of Gaussian 16 at Sat Jun 15 07:59:54 2019.
