 Gaussian 16, Revision A.03,
 Gaussian 16:  AS64L-G16RevA.03 25-Dec-2016

 ----------------------------------------------------------------------
 #p opt freq=noraman 6-31g(d) scrf=(solvent=tetrahydrofuran,pcm) pop=no
 ne empiricaldispersion=gd3 m06hf extrabasis
 ----------------------------------------------------------------------

 -----
 title
 -----
 Symbolic Z-matrix:
 Charge =  0 Multiplicity = 1

 SCF Done:  E(RM06HF) =  -2297.48317135     A.U. after   14 cycles
 Optimization completed.
    -- Stationary point found.
 Normal termination of Gaussian 16 at Sat Jun 15 08:18:48 2019.

 ------------------------------------------------------------------
 #P Geom=AllCheck Guess=TCheck SCRF=Check GenChk RM06HF/ChkBas Freq
 ------------------------------------------------------------------

 Structure from the checkpoint file:  "/scratch/users/ekwan/clay_new-glu_gluC6-bisCF3-sm-m06_hf_d3-custom-pcm_thf/Gau-33972.chk"
 -----
 title
 -----
 Charge =  0 Multiplicity = 1

                         Standard orientation:
 ---------------------------------------------------------------------
 Center     Atomic      Atomic             Coordinates (Angstroms)
 Number     Number       Type             X           Y           Z
 ---------------------------------------------------------------------
      1          6           0        3.352129    0.288525    0.652015
      2          6           0        3.310156   -0.431274   -0.696496
      3          6           0        1.857216   -0.720765   -1.112658
      4          6           0        1.006736    1.084814    0.195972
      5          6           0        2.416067    1.493946    0.632899
      6          1           0        1.789707   -1.118705   -2.120902
      7          1           0        3.718120    0.244368   -1.458457
      8          1           0        3.022316   -0.395618    1.439906
      9          1           0        0.578672    0.425273    0.956846
     10          1           0        2.801236    2.234263   -0.073563
     11          8           0        1.046809    0.399411   -1.062327
     12          8           0        1.375718   -1.733006   -0.193923
     13          8           0        4.076707   -1.596250   -0.597595
     14          8           0        4.657773    0.750782    0.902778
     15          8           0        2.313441    2.034553    1.928699
     16          6           0        0.101494    2.309881    0.054344
     17          1           0       -0.099521    2.680790    1.057304
     18          1           0       -0.837088    2.008812   -0.418863
     19          8           0        0.697553    3.368631   -0.656666
     20         16           0        0.091303   -2.589248   -0.598984
     21          8           0        0.060256   -3.690013    0.336917
     22          8           0        0.141867   -2.832350   -2.028027
     23          6           0       -1.272687   -1.507392   -0.257694
     24          6           0       -1.751647   -1.438012    1.043443
     25          6           0       -1.794626   -0.746113   -1.295928
     26          6           0       -2.796731   -0.557690    1.302519
     27          1           0       -1.322712   -2.050758    1.826121
     28          6           0       -2.840129    0.118093   -0.999138
     29          1           0       -1.397707   -0.830604   -2.298942
     30          6           0       -3.346860    0.223059    0.292840
     31          1           0       -4.158953    0.904219    0.508548
     32          6           0        4.339163   -2.253287   -1.831207
     33          1           0        3.446223   -2.755553   -2.206915
     34          1           0        4.702265   -1.539028   -2.572763
     35          1           0        5.106590   -2.994268   -1.629591
     36          6           0        5.385565   -0.025970    1.844816
     37          1           0        6.376036    0.415997    1.913288
     38          1           0        4.898662    0.015224    2.821434
     39          1           0        5.461661   -1.059710    1.510765
     40          6           0        3.003679    3.266543    2.101086
     41          1           0        2.859530    3.561738    3.136992
     42          1           0        4.065341    3.135541    1.895192
     43          1           0        2.584184    4.025477    1.438547
     44          6           0        0.755878    3.188177   -2.064986
     45          1           0        0.961842    4.164458   -2.496221
     46          1           0       -0.200557    2.815906   -2.438737
     47          1           0        1.544570    2.489078   -2.342040
     48          6           0       -3.375471   -0.494918    2.694977
     49          9           0       -2.432864   -0.712682    3.620124
     50          9           0       -4.327585   -1.421218    2.867314
     51          9           0       -3.928602    0.699605    2.937605
     52          6           0       -3.383713    1.015842   -2.082257
     53          9           0       -2.733065    2.192269   -2.103973
     54          9           0       -4.679566    1.285115   -1.890395
     55          9           0       -3.244938    0.463163   -3.291824
 ---------------------------------------------------------------------

 SCF Done:  E(RM06HF) =  -2297.48317135     A.U. after    1 cycles

 Isotropic polarizability for W=    0.000000      267.06 Bohr**3.
 End of Minotr F.D. properties file   721 does not exist.

                      1                      2                      3
                      A                      A                      A
 Frequencies --     12.1902                15.1703                24.9084
 Red. masses --      9.3328                 6.9520                11.2240
 Frc consts  --      0.0008                 0.0009                 0.0041
 IR Inten    --      0.2496                 0.3076                 0.2295

                      4                      5                      6
                      A                      A                      A
 Frequencies --     27.7820                34.3849                42.4913
 Red. masses --     17.5380                 3.8629                 3.6303
 Frc consts  --      0.0080                 0.0027                 0.0039
 IR Inten    --      0.0237                 2.0643                 2.6380

                      7                      8                      9
                      A                      A                      A
 Frequencies --     46.8176                54.3625                61.3731
 Red. masses --      5.3151                 5.1554                 3.5627
 Frc consts  --      0.0069                 0.0090                 0.0079
 IR Inten    --      0.6282                 3.5062                 1.1494

                     10                     11                     12
                      A                      A                      A
 Frequencies --     71.8620                76.1592                86.4290
 Red. masses --      3.9925                 3.6575                 3.2531
 Frc consts  --      0.0121                 0.0125                 0.0143
 IR Inten    --      1.0623                 3.0142                 7.5344

                     13                     14                     15
                      A                      A                      A
 Frequencies --     96.1772                98.1830               106.8038
 Red. masses --     11.5969                 8.6134                 4.5538
 Frc consts  --      0.0632                 0.0489                 0.0306
 IR Inten    --      4.9775                 5.3750                 2.3450

                     16                     17                     18
                      A                      A                      A
 Frequencies --    116.2953               129.9367               141.9042
 Red. masses --      4.6977                 1.3522                 1.9818
 Frc consts  --      0.0374                 0.0135                 0.0235
 IR Inten    --      0.6940                 1.3994                 3.2773

                     19                     20                     21
                      A                      A                      A
 Frequencies --    152.9001               167.4021               174.5088
 Red. masses --      7.2095                 5.2690                 2.5919
 Frc consts  --      0.0993                 0.0870                 0.0465
 IR Inten    --      0.7171                 1.9004                 1.6386

                     22                     23                     24
                      A                      A                      A
 Frequencies --    185.8939               197.4495               206.6912
 Red. masses --      3.4572                 2.5713                 1.3970
 Frc consts  --      0.0704                 0.0591                 0.0352
 IR Inten    --      0.7040                 8.5402                 2.1530

                     25                     26                     27
                      A                      A                      A
 Frequencies --    215.1800               231.2791               233.6334
 Red. masses --      2.0814                10.9439                 1.5325
 Frc consts  --      0.0568                 0.3449                 0.0493
 IR Inten    --      7.3397                 0.4160                 6.0020

                     28                     29                     30
                      A                      A                      A
 Frequencies --    242.3285               256.1431               266.7099
 Red. masses --      3.0739                 8.9047                 3.3878
 Frc consts  --      0.1064                 0.3442                 0.1420
 IR Inten    --      7.1048                 6.9622                12.8017

                     31                     32                     33
                      A                      A                      A
 Frequencies --    282.5289               287.4243               291.9492
 Red. masses --     11.5072                 4.7397                11.6761
 Frc consts  --      0.5412                 0.2307                 0.5864
 IR Inten    --      4.1252                 7.3568                 5.4948

                     34                     35                     36
                      A                      A                      A
 Frequencies --    295.8506               314.6185               325.4680
 Red. masses --      7.0588                 5.2297                 4.0358
 Frc consts  --      0.3640                 0.3050                 0.2519
 IR Inten    --     13.0887                 0.2147                 3.3957

                     37                     38                     39
                      A                      A                      A
 Frequencies --    346.7061               356.2843               360.2525
 Red. masses --      7.3278                 4.4114                 7.7072
 Frc consts  --      0.5190                 0.3299                 0.5893
 IR Inten    --      2.4675                 2.4930                 7.6629

                     40                     41                     42
                      A                      A                      A
 Frequencies --    377.7850               417.0642               426.2006
 Red. masses --      9.1561                10.1073                 8.4371
 Frc consts  --      0.7699                 1.0358                 0.9030
 IR Inten    --     15.6369                17.9998                 7.3906

                     43                     44                     45
                      A                      A                      A
 Frequencies --    433.7071               456.7448               472.8720
 Red. masses --      2.2606                 6.0075                 8.0291
 Frc consts  --      0.2505                 0.7384                 1.0578
 IR Inten    --     12.5317                10.4890                16.2067

                     46                     47                     48
                      A                      A                      A
 Frequencies --    478.8062               500.6308               509.6229
 Red. masses --      3.9850                 8.0091                11.9770
 Frc consts  --      0.5383                 1.1827                 1.8327
 IR Inten    --     13.2944                18.0269                 0.8648

                     49                     50                     51
                      A                      A                      A
 Frequencies --    529.7418               539.5904               550.6890
 Red. masses --      4.2102                 9.3898                 5.6813
 Frc consts  --      0.6961                 1.6108                 1.0151
 IR Inten    --     28.2132                52.4753                 9.7886

                     52                     53                     54
                      A                      A                      A
 Frequencies --    571.6011               580.2088               594.6778
 Red. masses --      3.9266                14.9531                 9.7693
 Frc consts  --      0.7559                 2.9659                 2.0355
 IR Inten    --     56.9288                 1.1969               268.6866

                     55                     56                     57
                      A                      A                      A
 Frequencies --    616.0706               620.2391               657.7242
 Red. masses --      7.1844                 7.3480                 5.7331
 Frc consts  --      1.6066                 1.6655                 1.4612
 IR Inten    --     29.7102                18.3278                17.2845

                     58                     59                     60
                      A                      A                      A
 Frequencies --    685.4917               691.4743               698.5774
 Red. masses --     12.8383                 7.6741                 5.0703
 Frc consts  --      3.5544                 2.1619                 1.4578
 IR Inten    --     67.5542                 1.0764                 9.7166

                     61                     62                     63
                      A                      A                      A
 Frequencies --    716.4719               729.3979               754.5065
 Red. masses --      2.4556                 9.5835                 6.2310
 Frc consts  --      0.7427                 3.0040                 2.0899
 IR Inten    --     47.8765                 2.6453                23.9811

                     64                     65                     66
                      A                      A                      A
 Frequencies --    844.3308               865.2855               881.5292
 Red. masses --      6.9078                 3.9840                11.9481
 Frc consts  --      2.9014                 1.7575                 5.4704
 IR Inten    --     32.7645                21.6283                12.5211

                     67                     68                     69
                      A                      A                      A
 Frequencies --    897.3017               936.6109               960.0398
 Red. masses --      5.0987                 5.7222                 1.7126
 Frc consts  --      2.4187                 2.9575                 0.9300
 IR Inten    --    262.7158               377.3018                56.0761

                     70                     71                     72
                      A                      A                      A
 Frequencies --    965.0337               985.0374              1000.2322
 Red. masses --      2.3591                 1.4143                 1.3807
 Frc consts  --      1.2945                 0.8085                 0.8138
 IR Inten    --     12.5273                 0.8567                 9.3689

                     73                     74                     75
                      A                      A                      A
 Frequencies --   1006.5826              1009.6967              1011.6852
 Red. masses --      6.2115                 3.9987                 4.1664
 Frc consts  --      3.7080                 2.4019                 2.5125
 IR Inten    --     21.0923                 6.0275                80.5953

                     76                     77                     78
                      A                      A                      A
 Frequencies --   1051.2621              1061.3093              1075.0054
 Red. masses --      4.1928                 3.6473                 4.0493
 Frc consts  --      2.7301                 2.4205                 2.7571
 IR Inten    --     63.5982                28.3336               153.0853

                     79                     80                     81
                      A                      A                      A
 Frequencies --   1119.0908              1133.4214              1145.3800
 Red. masses --      2.9190                 5.3091                 3.0138
 Frc consts  --      2.1538                 4.0184                 2.3295
 IR Inten    --     22.1376               131.1003                14.5492

                     82                     83                     84
                      A                      A                      A
 Frequencies --   1148.5534              1153.3787              1153.6601
 Red. masses --      2.7011                 2.1332                 1.7367
 Frc consts  --      2.0994                 1.6720                 1.3618
 IR Inten    --     90.3804                25.9536                20.6839

                     85                     86                     87
                      A                      A                      A
 Frequencies --   1169.6316              1172.0014              1201.8611
 Red. masses --      2.6186                 2.8406                 2.4782
 Frc consts  --      2.1107                 2.2989                 2.1091
 IR Inten    --    423.5156                76.9746                27.6540

                     88                     89                     90
                      A                      A                      A
 Frequencies --   1206.3387              1210.8922              1213.0516
 Red. masses --      2.2179                 1.3401                 1.3930
 Frc consts  --      1.9016                 1.1577                 1.2077
 IR Inten    --    197.4319                17.3555                23.4457

                     91                     92                     93
                      A                      A                      A
 Frequencies --   1216.6721              1217.4051              1224.3545
 Red. masses --      1.3041                 1.2995                 1.5282
 Frc consts  --      1.1374                 1.1348                 1.3497
 IR Inten    --     22.0393                 9.8064                34.8537

                     94                     95                     96
                      A                      A                      A
 Frequencies --   1227.0261              1249.1740              1252.1819
 Red. masses --      1.7424                 3.1447                 5.5263
 Frc consts  --      1.5456                 2.8912                 5.1053
 IR Inten    --     61.3162                92.1639                17.9191

                     97                     98                     99
                      A                      A                      A
 Frequencies --   1254.7350              1266.2732              1274.0293
 Red. masses --      3.0047                 1.8400                11.3669
 Frc consts  --      2.7871                 1.7383                10.8706
 IR Inten    --    277.0248                89.7961               401.9882

                    100                    101                    102
                      A                      A                      A
 Frequencies --   1281.0166              1286.3966              1288.3803
 Red. masses --      2.0205                10.2573                 2.5302
 Frc consts  --      1.9535                10.0007                 2.4746
 IR Inten    --     11.1413               314.6110                74.3225

                    103                    104                    105
                      A                      A                      A
 Frequencies --   1299.0371              1306.3819              1316.1912
 Red. masses --      1.9602                 8.3728                 2.5784
 Frc consts  --      1.9489                 8.4190                 2.6317
 IR Inten    --     42.3742               324.3691               115.3216

                    106                    107                    108
                      A                      A                      A
 Frequencies --   1322.5613              1325.1623              1336.2543
 Red. masses --      1.7478                 8.1787                 4.4351
 Frc consts  --      1.8012                 8.4620                 4.6658
 IR Inten    --     41.8099               275.8255               831.4343

                    109                    110                    111
                      A                      A                      A
 Frequencies --   1345.8765              1362.1589              1368.2649
 Red. masses --      2.1574                 1.2785                 1.5637
 Frc consts  --      2.3025                 1.3977                 1.7249
 IR Inten    --     27.1080                13.7434                 8.0468

                    112                    113                    114
                      A                      A                      A
 Frequencies --   1396.8713              1401.2324              1418.2202
 Red. masses --      1.3068                 1.2498                 5.9098
 Frc consts  --      1.5024                 1.4458                 7.0035
 IR Inten    --     12.8892                31.6100               217.0236

                    115                    116                    117
                      A                      A                      A
 Frequencies --   1420.4614              1433.7837              1446.0335
 Red. masses --      1.5037                 1.3570                 1.3415
 Frc consts  --      1.7876                 1.6436                 1.6527
 IR Inten    --      3.2506                 2.6899                10.9867

                    118                    119                    120
                      A                      A                      A
 Frequencies --   1458.8776              1467.4055              1482.4041
 Red. masses --      1.4743                 1.3890                 1.4583
 Frc consts  --      1.8487                 1.7621                 1.8881
 IR Inten    --     28.4113                24.2036                15.7723

                    121                    122                    123
                      A                      A                      A
 Frequencies --   1522.2607              1535.3853              1536.5090
 Red. masses --      4.3968                 3.3774                 1.2011
 Frc consts  --      6.0029                 4.6910                 1.6706
 IR Inten    --      3.6511                 0.4112                 2.8275

                    124                    125                    126
                      A                      A                      A
 Frequencies --   1544.5749              1546.7372              1553.1959
 Red. masses --      1.1802                 1.1770                 1.1663
 Frc consts  --      1.6589                 1.6590                 1.6577
 IR Inten    --      0.7017                 1.0040                 2.7754

                    127                    128                    129
                      A                      A                      A
 Frequencies --   1567.7993              1572.5994              1574.5434
 Red. masses --      1.1489                 1.0551                 1.0547
 Frc consts  --      1.6639                 1.5373                 1.5407
 IR Inten    --      5.2155                 5.0645                 7.1309

                    130                    131                    132
                      A                      A                      A
 Frequencies --   1574.9577              1576.8104              1587.8307
 Red. masses --      1.0535                 1.0580                 1.0504
 Frc consts  --      1.5397                 1.5499                 1.5603
 IR Inten    --      2.8103                 6.9014                16.2501

                    133                    134                    135
                      A                      A                      A
 Frequencies --   1588.4351              1590.0970              1593.6908
 Red. masses --      1.0495                 1.0516                 1.0518
 Frc consts  --      1.5601                 1.5666                 1.5740
 IR Inten    --      2.7886                 8.6683                 6.4895

                    136                    137                    138
                      A                      A                      A
 Frequencies --   1703.3533              1723.4841              3084.3474
 Red. masses --      6.8582                 6.5342                 1.0837
 Frc consts  --     11.7238                11.4356                 6.0742
 IR Inten    --     28.8876                36.2423                15.0110

                    139                    140                    141
                      A                      A                      A
 Frequencies --   3109.6158              3113.6074              3119.3176
 Red. masses --      1.0837                 1.0832                 1.0350
 Frc consts  --      6.1742                 6.1874                 5.9337
 IR Inten    --      8.7216                 3.1756                39.0534

                    142                    143                    144
                      A                      A                      A
 Frequencies --   3125.0186              3126.5791              3127.4820
 Red. masses --      1.0440                 1.0358                 1.0648
 Frc consts  --      6.0070                 5.9656                 6.1365
 IR Inten    --     24.7694                20.8410                44.7598

                    145                    146                    147
                      A                      A                      A
 Frequencies --   3130.8646              3132.7103              3170.2182
 Red. masses --      1.0462                 1.0661                 1.1066
 Frc consts  --      6.0420                 6.1643                 6.5529
 IR Inten    --     32.9869                70.0396                45.4349

                    148                    149                    150
                      A                      A                      A
 Frequencies --   3182.6240              3191.0148              3191.7195
 Red. masses --      1.1016                 1.0992                 1.1035
 Frc consts  --      6.5742                 6.5944                 6.6230
 IR Inten    --     40.1823                39.9572                29.7815

                    151                    152                    153
                      A                      A                      A
 Frequencies --   3205.4976              3221.4898              3228.2262
 Red. masses --      1.1003                 1.1035                 1.1041
 Frc consts  --      6.6612                 6.7474                 6.7792
 IR Inten    --     12.1457                42.0629                29.5730

                    154                    155                    156
                      A                      A                      A
 Frequencies --   3228.6686              3229.8951              3236.1174
 Red. masses --      1.1047                 1.0889                 1.0993
 Frc consts  --      6.7846                 6.6930                 6.7831
 IR Inten    --     30.0210                 6.1342                23.3284

                    157                    158                    159
                      A                      A                      A
 Frequencies --   3282.3630              3292.2132              3292.4016
 Red. masses --      1.0937                 1.0933                 1.0939
 Frc consts  --      6.9429                 6.9817                 6.9864
 IR Inten    --     15.4480                11.0364                12.3738

 - Thermochemistry -
 -------------------
 Temperature   298.150 Kelvin.  Pressure   1.00000 Atm.
 Atom     1 has atomic number  6 and mass  12.00000

 Molecular mass:   512.09396 amu.
 Principal axes and moments of inertia in atomic units:
                           1         2         3
     Eigenvalues --  ******************************
           X            0.99994   0.00440   0.00986
           Y           -0.00689   0.96289   0.26982
           Z           -0.00831  -0.26987   0.96286
 This molecule is an asymmetric top.
 Rotational symmetry number  1.
 Warning -- assumption of classical behavior for rotation
           may cause significant error
 Rotational temperatures (Kelvin)      0.00729     0.00412     0.00404
 Rotational constants (GHZ):           0.15199     0.08577     0.08415
 Zero-point vibrational energy    1110622.7 (Joules/Mol)
                                  265.44519 (Kcal/Mol)
 Warning -- explicit consideration of  56 degrees of freedom as
           vibrations may cause significant error
 Vibrational temperatures:     17.54    21.83    35.84    39.97    49.47
          (Kelvin)             61.14    67.36    78.22    88.30   103.39
                              109.58   124.35   138.38   141.26   153.67
                              167.32   186.95   204.17   219.99   240.85
                              251.08   267.46   284.09   297.38   309.60
                              332.76   336.15   348.66   368.53   383.74
                              406.50   413.54   420.05   425.66   452.67
                              468.28   498.83   512.61   518.32   543.55
                              600.06   613.21   624.01   657.15   680.36
                              688.90   720.30   733.23   762.18   776.35
                              792.32   822.41   834.79   855.61   886.39
                              892.39   946.32   986.27   994.88  1005.10
                             1030.84  1049.44  1085.57  1214.80  1244.95
                             1268.32  1291.02  1347.57  1381.28  1388.47
                             1417.25  1439.11  1448.25  1452.73  1455.59
                             1512.53  1526.99  1546.69  1610.12  1630.74
                             1647.95  1652.51  1659.45  1659.86  1682.84
                             1686.25  1729.21  1735.65  1742.20  1745.31
                             1750.52  1751.57  1761.57  1765.42  1797.28
                             1801.61  1805.28  1821.88  1833.04  1843.10
                             1850.84  1853.69  1869.02  1879.59  1893.71
                             1902.87  1906.61  1922.57  1936.42  1959.84
                             1968.63  2009.79  2016.06  2040.50  2043.73
                             2062.89  2080.52  2099.00  2111.27  2132.85
                             2190.19  2209.08  2210.69  2222.30  2225.41
                             2234.70  2255.71  2262.62  2265.42  2266.01
                             2268.68  2284.53  2285.40  2287.79  2292.97
                             2450.75  2479.71  4437.69  4474.04  4479.79
                             4488.00  4496.20  4498.45  4499.75  4504.62
                             4507.27  4561.24  4579.09  4591.16  4592.17
                             4612.00  4635.01  4644.70  4645.33  4647.10
                             4656.05  4722.59  4736.76  4737.03

 Zero-point correction=                           0.423014 (Hartree/Particle)
 Thermal correction to Energy=                    0.456154
 Thermal correction to Enthalpy=                  0.457098
 Thermal correction to Gibbs Free Energy=         0.353795
 Sum of electronic and zero-point Energies=          -2297.060158
 Sum of electronic and thermal Energies=             -2297.027018
 Sum of electronic and thermal Enthalpies=           -2297.026073
 Sum of electronic and thermal Free Energies=        -2297.129376

                     E (Thermal)             CV                S
                      KCal/Mol        Cal/Mol-Kelvin    Cal/Mol-Kelvin
 Total                  286.241            118.601            217.419
 Electronic               0.000              0.000              0.000
 Translational            0.889              2.981             44.587
 Rotational               0.889              2.981             36.925
 Vibrational            284.463            112.639            135.907
 Vibration     1          0.593              1.987              7.618
 Vibration     2          0.593              1.986              7.183
 Vibration     3          0.593              1.985              6.198
 Vibration     4          0.593              1.984              5.982
 Vibration     5          0.594              1.983              5.559
 Vibration     6          0.595              1.980              5.139
 Vibration     7          0.595              1.979              4.947
 Vibration     8          0.596              1.976              4.652
 Vibration     9          0.597              1.973              4.413
 Vibration    10          0.598              1.967              4.102
 Vibration    11          0.599              1.965              3.987
 Vibration    12          0.601              1.959              3.739
 Vibration    13          0.603              1.952              3.530
 Vibration    14          0.604              1.950              3.490
 Vibration    15          0.606              1.944              3.326
 Vibration    16          0.608              1.936              3.161
 Vibration    17          0.612              1.923              2.947
 Vibration    18          0.615              1.911              2.778
 Vibration    19          0.619              1.899              2.636
 Vibration    20          0.624              1.883              2.464
 Vibration    21          0.627              1.874              2.386
 Vibration    22          0.632              1.859              2.268
 Vibration    23          0.637              1.843              2.157
 Vibration    24          0.641              1.830              2.073
 Vibration    25          0.645              1.818              1.999
 Vibration    26          0.653              1.793              1.869
 Vibration    27          0.654              1.789              1.851
 Vibration    28          0.659              1.775              1.786
 Vibration    29          0.666              1.752              1.688
 Vibration    30          0.672              1.734              1.617
 Vibration    31          0.682              1.706              1.518
 Vibration    32          0.685              1.697              1.489
 Vibration    33          0.687              1.689              1.463
 Vibration    34          0.690              1.681              1.440
 Vibration    35          0.702              1.646              1.338
 Vibration    36          0.710              1.625              1.282
 Vibration    37          0.725              1.582              1.181
 Vibration    38          0.732              1.562              1.138
 Vibration    39          0.735              1.554              1.121
 Vibration    40          0.748              1.517              1.048
 Vibration    41          0.780              1.433              0.902
 Vibration    42          0.788              1.413              0.871
 Vibration    43          0.794              1.397              0.847
 Vibration    44          0.815              1.346              0.776
 Vibration    45          0.830              1.310              0.730
 Vibration    46          0.835              1.297              0.713
 Vibration    47          0.856              1.249              0.657
 Vibration    48          0.865              1.229              0.634
 Vibration    49          0.885              1.184              0.588
 Vibration    50          0.895              1.163              0.566
 Vibration    51          0.906              1.138              0.543
 Vibration    52          0.928              1.093              0.501
 Vibration    53          0.937              1.074              0.485
 Vibration    54          0.952              1.043              0.459
 Vibration    55          0.976              0.998              0.423
 Vibration    56          0.980              0.989              0.416

 Optimization completed.
    -- Stationary point found.
 Normal termination of Gaussian 16 at Sat Jun 15 09:33:44 2019.
