 Gaussian 16, Revision A.03,
 Gaussian 16:  AS64L-G16RevA.03 25-Dec-2016

 ----------------------------------------------------------------------
 #p opt freq=noraman pop=none 6-31g* scrf=(pcm,solvent=tetrahydrofuran)
  b972 extrabasis
 ----------------------------------------------------------------------

 -----
 title
 -----
 Symbolic Z-matrix:
 Charge =  0 Multiplicity = 1

 SCF Done:  E(RB972) =  -2297.48056293     A.U. after   13 cycles
 Optimization completed.
    -- Stationary point found.
 Normal termination of Gaussian 16 at Sat Jun 15 07:04:28 2019.

 -----------------------------------------------------------------
 #P Geom=AllCheck Guess=TCheck SCRF=Check GenChk RB972/ChkBas Freq
 -----------------------------------------------------------------

 Structure from the checkpoint file:  "/scratch/users/ekwan/clay_new-glu_gluC6-bisCF3-sm-b972-custom-pcm_thf/Gau-10844.chk"
 -----
 title
 -----
 Charge =  0 Multiplicity = 1

                         Standard orientation:
 ---------------------------------------------------------------------
 Center     Atomic      Atomic             Coordinates (Angstroms)
 Number     Number       Type             X           Y           Z
 ---------------------------------------------------------------------
      1          6           0        3.526134   -0.250257    0.710732
      2          6           0        3.354385   -0.495415   -0.789565
      3          6           0        1.883038   -0.350008   -1.213686
      4          6           0        1.393570    1.107009    0.616597
      5          6           0        2.842973    1.058849    1.110717
      6          1           0        1.770350   -0.383143   -2.295822
      7          1           0        3.894831    0.302067   -1.320267
      8          1           0        3.061668   -1.070488    1.271661
      9          1           0        0.815630    0.343235    1.151660
     10          1           0        3.392144    1.893529    0.661418
     11          8           0        1.320919    0.839821   -0.796118
     12          8           0        1.176074   -1.495860   -0.653642
     13          8           0        3.889933   -1.749479   -1.119268
     14          8           0        4.896601   -0.145086    1.037603
     15          8           0        2.814281    1.178347    2.519013
     16          6           0        0.719103    2.448660    0.879922
     17          1           0        0.614394    2.545547    1.962564
     18          1           0       -0.285018    2.436668    0.438404
     19          8           0        1.442762    3.578550    0.448905
     20         16           0       -0.118242   -2.105996   -1.414840
     21          8           0       -0.202561   -3.477570   -0.946025
     22          8           0       -0.019983   -1.803566   -2.836557
     23          6           0       -1.489158   -1.192872   -0.732744
     24          6           0       -2.119873   -1.679756    0.407886
     25          6           0       -1.894687   -0.015216   -1.352563
     26          6           0       -3.187166   -0.959207    0.938072
     27          1           0       -1.788655   -2.602869    0.865277
     28          6           0       -2.957683    0.694955   -0.801322
     29          1           0       -1.397365    0.336585   -2.246496
     30          6           0       -3.605271    0.227443    0.340204
     31          1           0       -4.433530    0.783373    0.759727
     32          6           0        4.310260   -1.881773   -2.466001
     33          1           0        3.470300   -1.849549   -3.168955
     34          1           0        5.031260   -1.100049   -2.733666
     35          1           0        4.792434   -2.855963   -2.544878
     36          6           0        5.463082   -1.307804    1.613529
     37          1           0        6.505939   -1.069526    1.828795
     38          1           0        4.959562   -1.572383    2.551708
     39          1           0        5.421083   -2.160803    0.930721
     40          6           0        3.693939    2.155687    3.046005
     41          1           0        3.557578    2.144122    4.128542
     42          1           0        4.736745    1.922941    2.811223
     43          1           0        3.451901    3.155379    2.666498
     44          6           0        1.239825    3.942898   -0.903820
     45          1           0        1.690478    4.928464   -1.032138
     46          1           0        0.169898    4.007983   -1.139560
     47          1           0        1.709295    3.240122   -1.598284
     48          6           0       -3.932941   -1.499649    2.132752
     49          9           0       -3.135067   -2.235419    2.922548
     50          9           0       -4.954287   -2.287616    1.751535
     51          9           0       -4.450831   -0.511364    2.880020
     52          6           0       -3.363798    2.012911   -1.410534
     53          9           0       -2.655601    3.030175   -0.876410
     54          9           0       -4.660536    2.282311   -1.198636
     55          9           0       -3.148972    2.035325   -2.734509
 ---------------------------------------------------------------------

 SCF Done:  E(RB972) =  -2297.48056293     A.U. after    1 cycles

 Isotropic polarizability for W=    0.000000      280.37 Bohr**3.
 End of Minotr F.D. properties file   721 does not exist.

                      1                      2                      3
                      A                      A                      A
 Frequencies --     12.7666                16.5584                18.9131
 Red. masses --      9.6543                 8.5194                11.6070
 Frc consts  --      0.0009                 0.0014                 0.0024
 IR Inten    --      0.1158                 0.2274                 0.0537

                      4                      5                      6
                      A                      A                      A
 Frequencies --     22.9149                37.5422                40.3192
 Red. masses --     11.5893                 5.9346                 4.5743
 Frc consts  --      0.0036                 0.0049                 0.0044
 IR Inten    --      0.0363                 0.6006                 0.2430

                      7                      8                      9
                      A                      A                      A
 Frequencies --     50.8079                54.1112                58.3455
 Red. masses --      3.8604                 5.6866                 3.1149
 Frc consts  --      0.0059                 0.0098                 0.0062
 IR Inten    --      1.1814                 0.9389                 1.9424

                     10                     11                     12
                      A                      A                      A
 Frequencies --     65.9809                73.3507                78.4292
 Red. masses --      2.9468                 3.9944                 3.2825
 Frc consts  --      0.0076                 0.0127                 0.0119
 IR Inten    --      8.8266                 0.2251                 0.5911

                     13                     14                     15
                      A                      A                      A
 Frequencies --     84.9429                99.6491               100.9720
 Red. masses --      2.5662                 6.8277                 7.8504
 Frc consts  --      0.0109                 0.0399                 0.0472
 IR Inten    --      6.0441                 3.0207                 4.6161

                     16                     17                     18
                      A                      A                      A
 Frequencies --    106.0700               116.9791               150.3915
 Red. masses --      2.9390                 7.6628                 7.4195
 Frc consts  --      0.0195                 0.0618                 0.0989
 IR Inten    --      2.6501                 1.8891                 0.1610

                     19                     20                     21
                      A                      A                      A
 Frequencies --    152.9274               160.7243               166.4131
 Red. masses --      1.3234                 1.8824                 2.1595
 Frc consts  --      0.0182                 0.0286                 0.0352
 IR Inten    --      0.1257                 0.4337                 0.8933

                     22                     23                     24
                      A                      A                      A
 Frequencies --    175.3466               184.4335               189.8945
 Red. masses --      2.0333                 3.0220                 2.1534
 Frc consts  --      0.0368                 0.0606                 0.0457
 IR Inten    --      2.7146                 5.2231                 0.9725

                     25                     26                     27
                      A                      A                      A
 Frequencies --    197.2296               225.5196               237.6285
 Red. masses --      1.7742                 2.9890                12.1936
 Frc consts  --      0.0407                 0.0896                 0.4057
 IR Inten    --      0.6009                10.6171                 0.0663

                     28                     29                     30
                      A                      A                      A
 Frequencies --    245.6793               255.9368               259.5736
 Red. masses --      4.4915                 3.6888                 5.5283
 Frc consts  --      0.1597                 0.1424                 0.2195
 IR Inten    --      5.8046                10.9046                11.4384

                     31                     32                     33
                      A                      A                      A
 Frequencies --    282.4383               288.5909               290.7075
 Red. masses --     11.1306                 5.1927                 8.3889
 Frc consts  --      0.5231                 0.2548                 0.4177
 IR Inten    --      3.1453                10.5900                 5.4403

                     34                     35                     36
                      A                      A                      A
 Frequencies --    293.7532               313.2387               323.9838
 Red. masses --      8.9035                 5.4986                 4.2840
 Frc consts  --      0.4527                 0.3179                 0.2649
 IR Inten    --      7.5700                 0.1526                 5.2662

                     37                     38                     39
                      A                      A                      A
 Frequencies --    343.4645               353.7258               357.6365
 Red. masses --      7.3524                 7.1349                 4.3300
 Frc consts  --      0.5110                 0.5260                 0.3263
 IR Inten    --      0.4732                 4.9611                 4.5413

                     40                     41                     42
                      A                      A                      A
 Frequencies --    366.1595               412.7895               420.1720
 Red. masses --      9.6730                10.1194                 8.7175
 Frc consts  --      0.7641                 1.0159                 0.9068
 IR Inten    --     14.8480                14.3933                 5.9841

                     43                     44                     45
                      A                      A                      A
 Frequencies --    442.9602               452.2836               464.4319
 Red. masses --      2.2125                 4.9303                 8.6052
 Frc consts  --      0.2558                 0.5942                 1.0936
 IR Inten    --      6.2555                14.2203                16.4277

                     46                     47                     48
                      A                      A                      A
 Frequencies --    471.0533               493.9938               501.7859
 Red. masses --      4.2409                 8.0318                11.9523
 Frc consts  --      0.5544                 1.1548                 1.7731
 IR Inten    --     10.6249                20.9622                 0.7661

                     49                     50                     51
                      A                      A                      A
 Frequencies --    524.7635               530.4413               542.0026
 Red. masses --      4.9877                11.3057                 4.5023
 Frc consts  --      0.8092                 1.8742                 0.7793
 IR Inten    --     40.3317                30.4442                15.8447

                     52                     53                     54
                      A                      A                      A
 Frequencies --    569.9351               570.4138               581.0588
 Red. masses --      4.0049                12.3918                11.6107
 Frc consts  --      0.7665                 2.3756                 2.3097
 IR Inten    --     37.6820                31.1784               269.7817

                     55                     56                     57
                      A                      A                      A
 Frequencies --    607.9153               614.9045               629.8080
 Red. masses --      6.6504                 8.0570                 5.8816
 Frc consts  --      1.4481                 1.7949                 1.3746
 IR Inten    --     43.5999                 4.5615                 9.4288

                     58                     59                     60
                      A                      A                      A
 Frequencies --    676.9763               683.1143               684.7885
 Red. masses --      7.6558                10.4687                 6.8956
 Frc consts  --      2.0672                 2.8783                 1.9052
 IR Inten    --      0.9975                57.0953                44.0751

                     61                     62                     63
                      A                      A                      A
 Frequencies --    710.2912               720.8073               733.3775
 Red. masses --      2.5256                 8.5185                 5.9646
 Frc consts  --      0.7507                 2.6077                 1.8901
 IR Inten    --     30.0592                10.3013                70.1889

                     64                     65                     66
                      A                      A                      A
 Frequencies --    814.0637               840.1147               846.0143
 Red. masses --      8.8598                 4.2648                 8.2259
 Frc consts  --      3.4593                 1.7735                 3.4689
 IR Inten    --    501.2247               159.7163               105.2203

                     67                     68                     69
                      A                      A                      A
 Frequencies --    863.6203               883.2778               920.5552
 Red. masses --     12.0717                 4.0347                 1.5892
 Frc consts  --      5.3048                 1.8546                 0.7935
 IR Inten    --     24.4549                51.6967                67.4943

                     70                     71                     72
                      A                      A                      A
 Frequencies --    936.5964               949.1925               963.1206
 Red. masses --      2.7828                 1.4023                 1.3677
 Frc consts  --      1.4383                 0.7444                 0.7475
 IR Inten    --     23.8430                 3.3188                 6.7764

                     73                     74                     75
                      A                      A                      A
 Frequencies --    978.4304               989.1739              1015.2838
 Red. masses --      4.7775                 4.1863                 5.2534
 Frc consts  --      2.6947                 2.4134                 3.1905
 IR Inten    --     10.2159                43.5684                27.4250

                     76                     77                     78
                      A                      A                      A
 Frequencies --   1018.4119              1036.0980              1052.6766
 Red. masses --      4.6480                 4.2895                 3.5493
 Frc consts  --      2.8403                 2.7131                 2.3173
 IR Inten    --     26.2415                13.2047               128.1981

                     79                     80                     81
                      A                      A                      A
 Frequencies --   1094.0847              1121.4075              1128.5884
 Red. masses --      3.1355                11.5390                 2.9359
 Frc consts  --      2.2113                 8.5496                 2.2033
 IR Inten    --     17.9784                69.8757               114.8623

                     82                     83                     84
                      A                      A                      A
 Frequencies --   1136.7887              1138.1847              1146.1983
 Red. masses --      2.6807                 2.6369                 2.0104
 Frc consts  --      2.0411                 2.0127                 1.5561
 IR Inten    --     70.2333                47.4139                39.9960

                     85                     86                     87
                      A                      A                      A
 Frequencies --   1148.3899              1164.6673              1165.8564
 Red. masses --      3.0753                 3.7689                 4.0423
 Frc consts  --      2.3896                 3.0121                 3.2372
 IR Inten    --    226.2196               268.3996               296.2116

                     88                     89                     90
                      A                      A                      A
 Frequencies --   1171.8863              1183.2737              1187.8658
 Red. masses --      3.6499                10.6915                 1.5631
 Frc consts  --      2.9533                 8.8198                 1.2995
 IR Inten    --    263.1461               404.8590                30.5870

                     91                     92                     93
                      A                      A                      A
 Frequencies --   1190.0680              1191.4513              1195.3609
 Red. masses --      1.5487                 1.3582                 1.3241
 Frc consts  --      1.2923                 1.1359                 1.1147
 IR Inten    --     18.1230                 3.6749                 3.9490

                     94                     95                     96
                      A                      A                      A
 Frequencies --   1196.1072              1196.7085              1201.0596
 Red. masses --     12.0564                 1.6236                 2.9978
 Frc consts  --     10.1627                 1.3699                 2.5479
 IR Inten    --    342.2138                31.2362               151.7063

                     97                     98                     99
                      A                      A                      A
 Frequencies --   1208.5701              1223.0633              1224.5493
 Red. masses --      4.1083                 1.4646                 7.6763
 Frc consts  --      3.5355                 1.2909                 6.7819
 IR Inten    --    177.5251                77.6014               169.9372

                    100                    101                    102
                      A                      A                      A
 Frequencies --   1229.8389              1231.8492              1241.7825
 Red. masses --      6.4741                 1.5528                 1.8514
 Frc consts  --      5.7694                 1.3883                 1.6820
 IR Inten    --    293.8555                27.3054                21.1863

                    103                    104                    105
                      A                      A                      A
 Frequencies --   1246.9911              1272.8826              1297.3423
 Red. masses --      1.7000                 1.7765                 3.2491
 Frc consts  --      1.5575                 1.6959                 3.2219
 IR Inten    --     41.8404                 7.5506               787.9038

                    106                    107                    108
                      A                      A                      A
 Frequencies --   1313.1525              1319.4449              1341.5597
 Red. masses --      1.4541                 1.3829                12.9602
 Frc consts  --      1.4773                 1.4185                13.7430
 IR Inten    --      1.9697                13.7670               336.1472

                    109                    110                    111
                      A                      A                      A
 Frequencies --   1350.2904              1355.4660              1379.2527
 Red. masses --      1.3728                 1.2433                 1.2478
 Frc consts  --      1.4748                 1.3459                 1.3986
 IR Inten    --      5.2609                12.2767                23.8896

                    112                    113                    114
                      A                      A                      A
 Frequencies --   1382.6973              1385.0818              1396.4608
 Red. masses --      1.4768                 3.0772                 5.2834
 Frc consts  --      1.6635                 3.4783                 6.0704
 IR Inten    --    111.4227               104.7947                 0.2971

                    115                    116                    117
                      A                      A                      A
 Frequencies --   1401.2859              1409.1185              1425.0807
 Red. masses --      1.2892                 1.4195                 1.3073
 Frc consts  --      1.4915                 1.6607                 1.5642
 IR Inten    --      1.1979                15.4827                 9.5196

                    118                    119                    120
                      A                      A                      A
 Frequencies --   1434.1506              1442.0859              1453.4864
 Red. masses --      1.4245                 1.3121                 1.3469
 Frc consts  --      1.7263                 1.6076                 1.6766
 IR Inten    --     34.6463                13.3402                14.3201

                    121                    122                    123
                      A                      A                      A
 Frequencies --   1496.7966              1498.8186              1502.7885
 Red. masses --      1.0951                 3.7243                 1.1713
 Frc consts  --      1.4455                 4.9294                 1.5586
 IR Inten    --      3.0602                 4.1466                 0.0356

                    124                    125                    126
                      A                      A                      A
 Frequencies --   1504.2753              1507.0153              1508.0206
 Red. masses --      1.1646                 1.1304                 4.1383
 Frc consts  --      1.5527                 1.5125                 5.5449
 IR Inten    --      1.1967                 4.5402                 0.4540

                    127                    128                    129
                      A                      A                      A
 Frequencies --   1516.0090              1516.1027              1516.8391
 Red. masses --      1.0646                 1.0507                 1.0531
 Frc consts  --      1.4416                 1.4229                 1.4276
 IR Inten    --     15.6173                 3.5733                 1.1042

                    130                    131                    132
                      A                      A                      A
 Frequencies --   1523.1454              1525.6251              1534.4458
 Red. masses --      1.1256                 1.0779                 1.0524
 Frc consts  --      1.5386                 1.4782                 1.4600
 IR Inten    --      1.2849                 6.3030                12.8119

                    133                    134                    135
                      A                      A                      A
 Frequencies --   1541.0123              1541.6950              1543.0870
 Red. masses --      1.0505                 1.0491                 1.0558
 Frc consts  --      1.4698                 1.4691                 1.4812
 IR Inten    --      9.2742                 7.8557                10.4974

                    136                    137                    138
                      A                      A                      A
 Frequencies --   1667.4028              1689.0376              3038.8995
 Red. masses --      6.3430                 6.0679                 1.0805
 Frc consts  --     10.3903                10.1993                 5.8789
 IR Inten    --     17.9452                21.8185                24.2940

                    139                    140                    141
                      A                      A                      A
 Frequencies --   3048.0886              3048.1198              3049.1776
 Red. masses --      1.0364                 1.0365                 1.0375
 Frc consts  --      5.6731                 5.6739                 5.6834
 IR Inten    --     47.3827               137.1000                33.5178

                    142                    143                    144
                      A                      A                      A
 Frequencies --   3053.6162              3067.8714              3074.2069
 Red. masses --      1.0340                 1.0736                 1.0837
 Frc consts  --      5.6804                 5.9533                 6.0341
 IR Inten    --     72.6434                10.8497                17.9053

                    145                    146                    147
                      A                      A                      A
 Frequencies --   3078.1223              3095.3264              3115.2328
 Red. masses --      1.0740                 1.0851                 1.1063
 Frc consts  --      5.9953                 6.1256                 6.3254
 IR Inten    --     51.0564                62.2119                64.2900

                    148                    149                    150
                      A                      A                      A
 Frequencies --   3125.8966              3130.2247              3130.8898
 Red. masses --      1.0997                 1.0993                 1.1032
 Frc consts  --      6.3309                 6.3462                 6.3715
 IR Inten    --     51.9390                72.3840                37.8962

                    151                    152                    153
                      A                      A                      A
 Frequencies --   3153.2404              3171.3907              3174.9059
 Red. masses --      1.1002                 1.1038                 1.1037
 Frc consts  --      6.4453                 6.5408                 6.5548
 IR Inten    --     22.5359                48.0932                40.4529

                    154                    155                    156
                      A                      A                      A
 Frequencies --   3175.1718              3181.5920              3186.7572
 Red. masses --      1.1044                 1.0884                 1.1004
 Frc consts  --      6.5598                 6.4915                 6.5841
 IR Inten    --     39.7321                13.7290                28.6174

                    157                    158                    159
                      A                      A                      A
 Frequencies --   3272.3699              3274.6384              3278.5350
 Red. masses --      1.0923                 1.0923                 1.0922
 Frc consts  --      6.8917                 6.9013                 6.9168
 IR Inten    --      0.6416                 5.8458                 4.8325

 - Thermochemistry -
 -------------------
 Temperature   298.150 Kelvin.  Pressure   1.00000 Atm.
 Atom     1 has atomic number  6 and mass  12.00000

 Molecular mass:   512.09396 amu.
 Principal axes and moments of inertia in atomic units:
                           1         2         3
     Eigenvalues --  ******************************
           X            0.99994  -0.00050   0.01049
           Y           -0.00040   0.99628   0.08616
           Z           -0.01049  -0.08616   0.99623
 This molecule is an asymmetric top.
 Rotational symmetry number  1.
 Warning -- assumption of classical behavior for rotation
           may cause significant error
 Rotational temperatures (Kelvin)      0.00720     0.00382     0.00354
 Rotational constants (GHZ):           0.15009     0.07968     0.07380
 Zero-point vibrational energy    1088485.5 (Joules/Mol)
                                  260.15428 (Kcal/Mol)
 Warning -- explicit consideration of  56 degrees of freedom as
           vibrations may cause significant error
 Vibrational temperatures:     18.37    23.82    27.21    32.97    54.01
          (Kelvin)             58.01    73.10    77.85    83.95    94.93
                              105.54   112.84   122.21   143.37   145.28
                              152.61   168.31   216.38   220.03   231.25
                              239.43   252.28   265.36   273.22   283.77
                              324.47   341.89   353.48   368.24   373.47
                              406.37   415.22   418.26   422.65   450.68
                              466.14   494.17   508.93   514.56   526.82
                              593.91   604.53   637.32   650.74   668.21
                              677.74   710.75   721.96   755.02   763.19
                              779.82   820.01   820.70   836.01   874.65
                              884.71   906.15   974.02   982.85   985.26
                             1021.95  1037.08  1055.17  1171.26  1208.74
                             1217.23  1242.56  1270.84  1324.47  1347.55
                             1365.68  1385.72  1407.74  1423.20  1460.77
                             1465.27  1490.71  1514.57  1574.14  1613.46
                             1623.79  1635.59  1637.59  1649.12  1652.28
                             1675.70  1677.41  1686.08  1702.47  1709.07
                             1712.24  1714.23  1719.86  1720.93  1721.80
                             1728.06  1738.86  1759.72  1761.85  1769.46
                             1772.36  1786.65  1794.14  1831.39  1866.59
                             1889.33  1898.39  1930.21  1942.77  1950.21
                             1984.44  1989.39  1992.82  2009.20  2016.14
                             2027.41  2050.37  2063.42  2074.84  2091.24
                             2153.56  2156.47  2162.18  2164.32  2168.26
                             2169.71  2181.20  2181.33  2182.39  2191.47
                             2195.03  2207.73  2217.17  2218.16  2220.16
                             2399.02  2430.15  4372.30  4385.52  4385.56
                             4387.09  4393.47  4413.98  4423.10  4428.73
                             4453.48  4482.13  4497.47  4503.70  4504.65
                             4536.81  4562.92  4567.98  4568.36  4577.60
                             4585.03  4708.21  4711.47  4717.08

 Zero-point correction=                           0.414582 (Hartree/Particle)
 Thermal correction to Energy=                    0.448238
 Thermal correction to Enthalpy=                  0.449182
 Thermal correction to Gibbs Free Energy=         0.344273
 Sum of electronic and zero-point Energies=          -2297.065981
 Sum of electronic and thermal Energies=             -2297.032325
 Sum of electronic and thermal Enthalpies=           -2297.031381
 Sum of electronic and thermal Free Energies=        -2297.136290

                     E (Thermal)             CV                S
                      KCal/Mol        Cal/Mol-Kelvin    Cal/Mol-Kelvin
 Total                  281.273            120.502            220.799
 Electronic               0.000              0.000              0.000
 Translational            0.889              2.981             44.587
 Rotational               0.889              2.981             37.141
 Vibrational            279.496            114.541            139.071
 Vibration     1          0.593              1.987              7.526
 Vibration     2          0.593              1.986              7.009
 Vibration     3          0.593              1.986              6.745
 Vibration     4          0.593              1.985              6.364
 Vibration     5          0.594              1.982              5.385
 Vibration     6          0.594              1.981              5.243
 Vibration     7          0.595              1.977              4.786
 Vibration     8          0.596              1.976              4.661
 Vibration     9          0.596              1.974              4.512
 Vibration    10          0.597              1.971              4.270
 Vibration    11          0.599              1.967              4.061
 Vibration    12          0.600              1.964              3.930
 Vibration    13          0.601              1.960              3.773
 Vibration    14          0.604              1.949              3.461
 Vibration    15          0.604              1.948              3.435
 Vibration    16          0.605              1.944              3.340
 Vibration    17          0.608              1.935              3.150
 Vibration    18          0.618              1.902              2.667
 Vibration    19          0.619              1.899              2.635
 Vibration    20          0.622              1.891              2.541
 Vibration    21          0.624              1.884              2.476
 Vibration    22          0.627              1.873              2.377
 Vibration    23          0.631              1.861              2.283
 Vibration    24          0.633              1.854              2.229
 Vibration    25          0.637              1.844              2.159
 Vibration    26          0.650              1.802              1.914
 Vibration    27          0.656              1.783              1.821
 Vibration    28          0.660              1.770              1.761
 Vibration    29          0.666              1.753              1.689
 Vibration    30          0.668              1.747              1.665
 Vibration    31          0.681              1.706              1.519
 Vibration    32          0.685              1.695              1.482
 Vibration    33          0.687              1.691              1.470
 Vibration    34          0.689              1.685              1.452
 Vibration    35          0.701              1.648              1.345
 Vibration    36          0.709              1.627              1.290
 Vibration    37          0.722              1.589              1.196
 Vibration    38          0.730              1.568              1.150
 Vibration    39          0.733              1.560              1.132
 Vibration    40          0.739              1.542              1.096
 Vibration    41          0.777              1.442              0.917
 Vibration    42          0.783              1.426              0.891
 Vibration    43          0.803              1.376              0.817
 Vibration    44          0.811              1.356              0.789
 Vibration    45          0.822              1.329              0.753
 Vibration    46          0.828              1.314              0.735
 Vibration    47          0.850              1.263              0.673
 Vibration    48          0.857              1.246              0.654
 Vibration    49          0.880              1.195              0.599
 Vibration    50          0.885              1.183              0.586
 Vibration    51          0.897              1.157              0.561
 Vibration    52          0.926              1.096              0.504
 Vibration    53          0.927              1.095              0.503
 Vibration    54          0.938              1.072              0.483
 Vibration    55          0.967              1.015              0.436
 Vibration    56          0.974              1.000              0.425

                           ! Non-Optimized Parameters !
 Normal termination of Gaussian 16 at Sat Jun 15 07:50:13 2019.
