 Gaussian 16, Revision A.03,
 Gaussian 16:  AS64L-G16RevA.03 25-Dec-2016

 ----------------------------------------------------------------------
 #p opt freq=noraman 6-31g(d) scrf=(solvent=tetrahydrofuran,pcm) pop=no
 ne b1b95 extrabasis
 ----------------------------------------------------------------------

 -----
 title
 -----
 Symbolic Z-matrix:
 Charge =  0 Multiplicity = 1

 SCF Done:  E(RB1B95) =  -2297.49391115     A.U. after   13 cycles
 SCF Done:  E(RB1B95) =  -2297.49391085     A.U. after    6 cycles
 SCF Done:  E(RB1B95) =  -2297.49391092     A.U. after    6 cycles
 Optimization completed.
    -- Stationary point found.
 Normal termination of Gaussian 16 at Sat Jun 15 10:31:02 2019.

 ------------------------------------------------------------------
 #P Geom=AllCheck Guess=TCheck SCRF=Check GenChk RB1B95/ChkBas Freq
 ------------------------------------------------------------------

 Structure from the checkpoint file:  "/scratch/users/ekwan/clay_new-glu_gluC6-bisCF3-sm-b1b95-custom-pcm_thf/Gau-20898.chk"
 -----
 title
 -----
 Charge =  0 Multiplicity = 1

                         Standard orientation:
 ---------------------------------------------------------------------
 Center     Atomic      Atomic             Coordinates (Angstroms)
 Number     Number       Type             X           Y           Z
 ---------------------------------------------------------------------
      1          6           0        3.449449   -0.085465    0.726871
      2          6           0        3.350791   -0.385290   -0.763033
      3          6           0        1.889427   -0.399988   -1.216435
      4          6           0        1.213987    1.053152    0.527731
      5          6           0        2.639544    1.158948    1.055766
      6          1           0        1.792892   -0.514754   -2.295099
      7          1           0        3.830065    0.441355   -1.308100
      8          1           0        3.041983   -0.931476    1.296159
      9          1           0        0.696085    0.246068    1.061762
     10          1           0        3.119399    2.024428    0.583676
     11          8           0        1.214040    0.753416   -0.875001
     12          8           0        1.291992   -1.562543   -0.584619
     13          8           0        4.006738   -1.591505   -1.030363
     14          8           0        4.784222    0.161005    1.099370
     15          8           0        2.564738    1.333840    2.451161
     16          6           0        0.427199    2.332263    0.751497
     17          1           0        0.247568    2.413974    1.824882
     18          1           0       -0.540885    2.252532    0.241146
     19          8           0        1.093628    3.509760    0.373365
     20         16           0       -0.006154   -2.240864   -1.257431
     21          8           0       -0.071719   -3.561187   -0.667040
     22          8           0        0.069163   -2.057071   -2.696895
     23          6           0       -1.367599   -1.283766   -0.644021
     24          6           0       -1.957095   -1.646373    0.558355
     25          6           0       -1.817480   -0.204472   -1.390967
     26          6           0       -3.030712   -0.895984    1.019869
     27          1           0       -1.591130   -2.500033    1.115112
     28          6           0       -2.888266    0.532875   -0.906095
     29          1           0       -1.349646    0.045955   -2.334307
     30          6           0       -3.497382    0.192694    0.295441
     31          1           0       -4.335156    0.770992    0.664041
     32          6           0        4.386141   -1.762391   -2.381292
     33          1           0        3.520705   -1.891984   -3.040194
     34          1           0        4.979562   -0.910668   -2.733645
     35          1           0        4.993675   -2.665320   -2.424358
     36          6           0        5.452532   -0.953863    1.653309
     37          1           0        6.455838   -0.617345    1.916620
     38          1           0        4.946942   -1.305075    2.560941
     39          1           0        5.521227   -1.778476    0.939606
     40          6           0        3.304259    2.441441    2.923928
     41          1           0        3.163613    2.477187    4.004711
     42          1           0        4.369408    2.327896    2.701123
     43          1           0        2.937640    3.374614    2.481378
     44          6           0        1.045868    3.796361   -1.008705
     45          1           0        1.370563    4.830644   -1.128472
     46          1           0        0.023973    3.695615   -1.394095
     47          1           0        1.703883    3.143836   -1.589538
     48          6           0       -3.727462   -1.302361    2.287218
     49          9           0       -2.882738   -1.892302    3.141535
     50          9           0       -4.717633   -2.172400    2.042850
     51          9           0       -4.270825   -0.247152    2.906526
     52          6           0       -3.358362    1.742107   -1.661716
     53          9           0       -2.731282    2.854451   -1.238663
     54          9           0       -4.669911    1.946294   -1.496802
     55          9           0       -3.117744    1.628753   -2.972178
 ---------------------------------------------------------------------

 SCF Done:  E(RB1B95) =  -2297.49391092     A.U. after    1 cycles

 Isotropic polarizability for W=    0.000000      277.94 Bohr**3.
 End of Minotr F.D. properties file   721 does not exist.

                      1                      2                      3
                      A                      A                      A
 Frequencies --     13.8113                16.0207                20.8508
 Red. masses --     10.1037                17.4942                 6.1730
 Frc consts  --      0.0011                 0.0026                 0.0016
 IR Inten    --      0.0657                 0.0201                 0.3637

                      4                      5                      6
                      A                      A                      A
 Frequencies --     25.0948                37.0856                51.0451
 Red. masses --     12.3003                 4.3479                 3.1970
 Frc consts  --      0.0046                 0.0035                 0.0049
 IR Inten    --      0.1758                 0.8564                 1.2942

                      7                      8                      9
                      A                      A                      A
 Frequencies --     55.1656                56.0001                74.5436
 Red. masses --      4.2365                 6.2372                 4.6068
 Frc consts  --      0.0076                 0.0115                 0.0151
 IR Inten    --      3.0848                 0.8782                 0.0470

                     10                     11                     12
                      A                      A                      A
 Frequencies --     79.7712                89.8814                94.4673
 Red. masses --      2.9642                 2.6288                 2.6643
 Frc consts  --      0.0111                 0.0125                 0.0140
 IR Inten    --      1.2709                 5.8555                 3.2646

                     13                     14                     15
                      A                      A                      A
 Frequencies --     99.1212               102.5180               104.5468
 Red. masses --      4.1444                 7.3437                 5.3332
 Frc consts  --      0.0240                 0.0455                 0.0343
 IR Inten    --      0.8169                 1.8260                 4.9761

                     16                     17                     18
                      A                      A                      A
 Frequencies --    117.1094               119.0370               155.8835
 Red. masses --      5.2516                 4.3313                 7.2048
 Frc consts  --      0.0424                 0.0362                 0.1032
 IR Inten    --      3.5177                 2.5863                 0.2260

                     19                     20                     21
                      A                      A                      A
 Frequencies --    156.9819               165.1937               177.1127
 Red. masses --      1.3963                 2.6418                 4.4282
 Frc consts  --      0.0203                 0.0425                 0.0818
 IR Inten    --      0.9145                 0.4194                 2.0655

                     22                     23                     24
                      A                      A                      A
 Frequencies --    183.4752               189.0717               200.2898
 Red. masses --      1.4355                 3.0681                 2.3211
 Frc consts  --      0.0285                 0.0646                 0.0549
 IR Inten    --      2.5884                 1.4028                 4.4164

                     25                     26                     27
                      A                      A                      A
 Frequencies --    215.2199               236.6127               240.9077
 Red. masses --      2.3037                 1.9625                11.7549
 Frc consts  --      0.0629                 0.0647                 0.4019
 IR Inten    --      3.4691                 4.5923                 0.1186

                     28                     29                     30
                      A                      A                      A
 Frequencies --    249.0302               261.1069               267.0238
 Red. masses --      4.0139                 5.8119                 2.9387
 Frc consts  --      0.1467                 0.2335                 0.1235
 IR Inten    --      4.8883                12.0553                12.5209

                     31                     32                     33
                      A                      A                      A
 Frequencies --    284.5660               289.2083               293.5044
 Red. masses --     12.0169                 4.4006                10.1712
 Frc consts  --      0.5733                 0.2169                 0.5162
 IR Inten    --      3.2662                 9.3312                 6.6050

                     34                     35                     36
                      A                      A                      A
 Frequencies --    296.3187               316.7912               325.4585
 Red. masses --      7.5167                 5.4135                 4.1399
 Frc consts  --      0.3889                 0.3201                 0.2584
 IR Inten    --     12.0383                 0.2999                 5.6199

                     37                     38                     39
                      A                      A                      A
 Frequencies --    344.5982               352.7827               358.2786
 Red. masses --      6.4854                 5.5086                 5.6135
 Frc consts  --      0.4537                 0.4039                 0.4245
 IR Inten    --      0.9485                 2.8116                 7.5311

                     40                     41                     42
                      A                      A                      A
 Frequencies --    372.0234               414.1488               421.9197
 Red. masses --      9.2340                 9.9275                 8.8704
 Frc consts  --      0.7530                 1.0032                 0.9304
 IR Inten    --     14.7593                14.6757                 7.0401

                     43                     44                     45
                      A                      A                      A
 Frequencies --    439.7052               453.6934               468.4347
 Red. masses --      2.1118                 5.8206                 8.9569
 Frc consts  --      0.2406                 0.7059                 1.1580
 IR Inten    --      6.8918                12.5562                19.9374

                     46                     47                     48
                      A                      A                      A
 Frequencies --    473.7569               494.8653               501.4621
 Red. masses --      3.9270                 7.7551                11.8175
 Frc consts  --      0.5193                 1.1190                 1.7509
 IR Inten    --      7.8971                16.9137                 1.2089

                     49                     50                     51
                      A                      A                      A
 Frequencies --    523.4791               531.8612               541.1392
 Red. masses --      4.2883                10.4751                 5.3000
 Frc consts  --      0.6924                 1.7458                 0.9144
 IR Inten    --     36.0926                37.6774                 8.3436

                     52                     53                     54
                      A                      A                      A
 Frequencies --    570.8717               572.8949               582.1785
 Red. masses --      4.0061                11.5649                10.9333
 Frc consts  --      0.7692                 2.2364                 2.1833
 IR Inten    --     42.4369                12.4498               266.9612

                     55                     56                     57
                      A                      A                      A
 Frequencies --    610.9298               618.6259               641.8097
 Red. masses --      6.7042                 8.0381                 5.8765
 Frc consts  --      1.4743                 1.8124                 1.4262
 IR Inten    --     37.7725                 3.1256                14.4551

                     58                     59                     60
                      A                      A                      A
 Frequencies --    679.6647               682.2617               687.0661
 Red. masses --      7.7458                12.6949                 5.8815
 Frc consts  --      2.1082                 3.4816                 1.6358
 IR Inten    --      1.0146                61.2683                34.3003

                     61                     62                     63
                      A                      A                      A
 Frequencies --    713.1886               723.8147               741.6235
 Red. masses --      2.5637                 9.5029                 5.4323
 Frc consts  --      0.7683                 2.9333                 1.7604
 IR Inten    --     30.6121                 4.4850                50.3386

                     64                     65                     66
                      A                      A                      A
 Frequencies --    825.8546               849.8035               857.4744
 Red. masses --      6.8570                 3.7244                11.9955
 Frc consts  --      2.7555                 1.5847                 5.1965
 IR Inten    --    283.0503                46.0982               368.2381

                     67                     68                     69
                      A                      A                      A
 Frequencies --    872.1679               894.0211               928.1265
 Red. masses --     12.0783                 4.0574                 1.5701
 Frc consts  --      5.4132                 1.9107                 0.7969
 IR Inten    --     20.9357                90.6027                65.1994

                     70                     71                     72
                      A                      A                      A
 Frequencies --    945.7061               955.8816               964.3102
 Red. masses --      2.7491                 1.3817                 1.3610
 Frc consts  --      1.4486                 0.7438                 0.7457
 IR Inten    --     28.5726                 0.0541                 4.3608

                     73                     74                     75
                      A                      A                      A
 Frequencies --    990.0531               998.4976              1014.8260
 Red. masses --      4.7071                 3.9805                 6.3796
 Frc consts  --      2.7185                 2.3382                 3.8711
 IR Inten    --     24.3380                32.5767                 4.5484

                     76                     77                     78
                      A                      A                      A
 Frequencies --   1029.3258              1046.5274              1061.5845
 Red. masses --      3.8396                 3.6633                 3.8518
 Frc consts  --      2.3969                 2.3639                 2.5575
 IR Inten    --     47.5673                 8.7741               137.1275

                     79                     80                     81
                      A                      A                      A
 Frequencies --   1103.1216              1132.9024              1134.9902
 Red. masses --      2.9169                 8.6202                 2.9109
 Frc consts  --      2.0913                 6.5186                 2.2094
 IR Inten    --     15.3164                47.2425               104.0996

                     82                     83                     84
                      A                      A                      A
 Frequencies --   1142.8356              1147.0367              1153.1138
 Red. masses --      2.0594                 2.2348                 2.0358
 Frc consts  --      1.5847                 1.7324                 1.5949
 IR Inten    --     89.7448                 6.0026                71.2433

                     85                     86                     87
                      A                      A                      A
 Frequencies --   1156.1699              1177.4666              1179.1258
 Red. masses --      2.4987                 4.1341                 3.1818
 Frc consts  --      1.9679                 3.3770                 2.6064
 IR Inten    --    147.6044               274.0233               219.1542

                     88                     89                     90
                      A                      A                      A
 Frequencies --   1182.6210              1186.6129              1190.9986
 Red. masses --      2.4964                 1.4327                 1.4228
 Frc consts  --      2.0571                 1.1885                 1.1891
 IR Inten    --    298.1163                39.0747                 2.3072

                     91                     92                     93
                      A                      A                      A
 Frequencies --   1193.0428              1194.4289              1198.9026
 Red. masses --      1.2880                 1.3452                 1.9464
 Frc consts  --      1.0801                 1.1307                 1.6484
 IR Inten    --      3.9033                25.9899                68.3172

                     94                     95                     96
                      A                      A                      A
 Frequencies --   1204.3216              1209.4333              1216.7199
 Red. masses --      7.9662                 3.0520                12.4838
 Frc consts  --      6.8075                 2.6302                10.8887
 IR Inten    --    361.1457               101.2322               336.5985

                     97                     98                     99
                      A                      A                      A
 Frequencies --   1219.9904              1223.9016              1232.1333
 Red. masses --      2.2669                 2.7277                 1.6663
 Frc consts  --      1.9879                 2.4074                 1.4905
 IR Inten    --    106.7292               233.5279                38.6268

                    100                    101                    102
                      A                      A                      A
 Frequencies --   1242.5764              1245.5871              1247.7889
 Red. masses --      7.8329                 1.8781                 7.5922
 Frc consts  --      7.1256                 1.7168                 6.9646
 IR Inten    --    178.8086                 9.9745               273.8459

                    103                    104                    105
                      A                      A                      A
 Frequencies --   1250.8589              1273.0442              1305.4144
 Red. masses --      2.2420                 1.8502                 2.2239
 Frc consts  --      2.0668                 1.7667                 2.2329
 IR Inten    --     89.3317                10.9060               543.3497

                    106                    107                    108
                      A                      A                      A
 Frequencies --   1307.0890              1317.6551              1344.8120
 Red. masses --      1.5042                 1.6445                 1.4774
 Frc consts  --      1.5141                 1.6823                 1.5743
 IR Inten    --     13.6614               252.6880                 2.3440

                    109                    110                    111
                      A                      A                      A
 Frequencies --   1351.7497              1360.7728              1373.1385
 Red. masses --      1.2337                 8.5298                 1.2667
 Frc consts  --      1.3281                 9.3059                 1.4072
 IR Inten    --     14.7248               330.9189                40.3163

                    112                    113                    114
                      A                      A                      A
 Frequencies --   1379.4713              1393.1241              1397.7433
 Red. masses --      1.2272                 1.3224                 6.2080
 Frc consts  --      1.3759                 1.5121                 7.1459
 IR Inten    --     13.4890                 3.2943               188.7310

                    115                    116                    117
                      A                      A                      A
 Frequencies --   1405.7982              1408.2638              1420.2424
 Red. masses --      2.0541                 2.9484                 1.3178
 Frc consts  --      2.3917                 3.4451                 1.5662
 IR Inten    --     12.0818                 7.8162                 6.2139

                    118                    119                    120
                      A                      A                      A
 Frequencies --   1430.6684              1437.6515              1447.1238
 Red. masses --      1.5133                 1.3592                 1.4226
 Frc consts  --      1.8250                 1.6552                 1.7553
 IR Inten    --     32.7554                15.1287                11.5776

                    121                    122                    123
                      A                      A                      A
 Frequencies --   1489.0069              1495.5281              1498.7163
 Red. masses --      1.0833                 1.1733                 1.1634
 Frc consts  --      1.4152                 1.5461                 1.5397
 IR Inten    --      3.9219                 1.7960                 0.2165

                    124                    125                    126
                      A                      A                      A
 Frequencies --   1501.3412              1508.7078              1509.1625
 Red. masses --      1.1285                 1.1422                 1.1288
 Frc consts  --      1.4987                 1.5318                 1.5148
 IR Inten    --      6.0892                16.5744                 2.6456

                    127                    128                    129
                      A                      A                      A
 Frequencies --   1509.2393              1514.0636              1521.2551
 Red. masses --      2.8259                 1.0583                 4.2434
 Frc consts  --      3.7924                 1.4293                 5.7859
 IR Inten    --      1.1961                 1.6158                 0.2712

                    130                    131                    132
                      A                      A                      A
 Frequencies --   1522.1061              1522.5885              1530.3386
 Red. masses --      1.1189                 1.0995                 1.0464
 Frc consts  --      1.5274                 1.5018                 1.4438
 IR Inten    --      0.5287                 7.7234                12.0855

                    133                    134                    135
                      A                      A                      A
 Frequencies --   1536.3849              1538.1362              1539.6416
 Red. masses --      1.0491                 1.0496                 1.0516
 Frc consts  --      1.4591                 1.4631                 1.4688
 IR Inten    --     10.5102                 6.9998                 9.8525

                    136                    137                    138
                      A                      A                      A
 Frequencies --   1682.3026              1704.1343              3035.4513
 Red. masses --      6.8505                 6.4547                 1.0823
 Frc consts  --     11.4230                11.0442                 5.8756
 IR Inten    --     21.4914                24.5483                22.5774

                    139                    140                    141
                      A                      A                      A
 Frequencies --   3048.6296              3051.7336              3054.9951
 Red. masses --      1.0352                 1.0401                 1.0342
 Frc consts  --      5.6685                 5.7070                 5.6871
 IR Inten    --     73.8660                60.1225                69.9850

                    142                    143                    144
                      A                      A                      A
 Frequencies --   3057.8738              3059.9783              3063.0244
 Red. masses --      1.0361                 1.0788                 1.0793
 Frc consts  --      5.7080                 5.9515                 5.9660
 IR Inten    --     38.1671                38.3677                 9.1246

                    145                    146                    147
                      A                      A                      A
 Frequencies --   3076.1324              3083.6111              3114.5174
 Red. masses --      1.0675                 1.0844                 1.1062
 Frc consts  --      5.9516                 6.0751                 6.3220
 IR Inten    --     53.3749                67.5650                59.4363

                    148                    149                    150
                      A                      A                      A
 Frequencies --   3129.9503              3130.3399              3137.1556
 Red. masses --      1.1051                 1.1024                 1.0954
 Frc consts  --      6.3789                 6.3644                 6.3518
 IR Inten    --     36.7650                56.6756                48.1529

                    151                    152                    153
                      A                      A                      A
 Frequencies --   3156.5496              3172.7997              3174.8669
 Red. masses --      1.0991                 1.1037                 1.0881
 Frc consts  --      6.4521                 6.5462                 6.4618
 IR Inten    --     19.2471                45.0810                12.4091

                    154                    155                    156
                      A                      A                      A
 Frequencies --   3176.7413              3179.4135              3189.1389
 Red. masses --      1.1032                 1.1052                 1.1004
 Frc consts  --      6.5594                 6.5826                 6.5938
 IR Inten    --     35.9463                32.9276                26.4238

                    157                    158                    159
                      A                      A                      A
 Frequencies --   3263.3218              3263.9096              3270.2909
 Red. masses --      1.0930                 1.0923                 1.0925
 Frc consts  --      6.8578                 6.8558                 6.8844
 IR Inten    --      5.7287                 3.2882                 6.9819

 - Thermochemistry -
 -------------------
 Temperature   298.150 Kelvin.  Pressure   1.00000 Atm.
 Atom     1 has atomic number  6 and mass  12.00000

 Molecular mass:   512.09396 amu.
 Principal axes and moments of inertia in atomic units:
                           1         2         3
     Eigenvalues --  ******************************
           X            0.99996   0.00087   0.00940
           Y           -0.00217   0.99023   0.13941
           Z           -0.00918  -0.13943   0.99019
 This molecule is an asymmetric top.
 Rotational symmetry number  1.
 Warning -- assumption of classical behavior for rotation
           may cause significant error
 Rotational temperatures (Kelvin)      0.00733     0.00395     0.00376
 Rotational constants (GHZ):           0.15264     0.08229     0.07829
 Zero-point vibrational energy    1091859.1 (Joules/Mol)
                                  260.96059 (Kcal/Mol)
 Warning -- explicit consideration of  56 degrees of freedom as
           vibrations may cause significant error
 Vibrational temperatures:     19.87    23.05    30.00    36.11    53.36
          (Kelvin)             73.44    79.37    80.57   107.25   114.77
                              129.32   135.92   142.61   147.50   150.42
                              168.49   171.27   224.28   225.86   237.68
                              254.83   263.98   272.03   288.17   309.65
                              340.43   346.61   358.30   375.67   384.19
                              409.43   416.11   422.29   426.34   455.79
                              468.26   495.80   507.58   515.48   535.26
                              595.87   607.05   632.64   652.76   673.97
                              681.63   712.00   721.49   753.17   765.23
                              778.58   821.36   824.27   837.62   878.99
                              890.06   923.42   977.89   981.62   988.53
                             1026.12  1041.41  1067.03  1188.22  1222.68
                             1233.71  1254.86  1286.30  1335.37  1360.66
                             1375.30  1387.43  1424.47  1436.62  1460.11
                             1480.97  1505.72  1527.38  1587.15  1629.99
                             1633.00  1644.29  1650.33  1659.07  1663.47
                             1694.11  1696.50  1701.53  1707.27  1713.58
                             1716.52  1718.52  1724.95  1732.75  1740.10
                             1750.59  1755.29  1760.92  1772.76  1787.79
                             1792.12  1795.29  1799.71  1831.63  1878.20
                             1880.61  1895.81  1934.88  1944.87  1957.85
                             1975.64  1984.75  2004.39  2011.04  2022.63
                             2026.18  2043.41  2058.41  2068.46  2082.09
                             2142.35  2151.73  2156.32  2160.10  2170.69
                             2171.35  2171.46  2178.40  2188.75  2189.97
                             2190.67  2201.82  2210.52  2213.03  2215.20
                             2420.46  2451.87  4367.34  4386.30  4390.76
                             4395.46  4399.60  4402.63  4407.01  4425.87
                             4436.63  4481.10  4503.30  4503.86  4513.67
                             4541.57  4564.95  4567.93  4570.62  4574.47
                             4588.46  4695.19  4696.04  4705.22

 Zero-point correction=                           0.415867 (Hartree/Particle)
 Thermal correction to Energy=                    0.449052
 Thermal correction to Enthalpy=                  0.449996
 Thermal correction to Gibbs Free Energy=         0.347317
 Sum of electronic and zero-point Energies=          -2297.078044
 Sum of electronic and thermal Energies=             -2297.044859
 Sum of electronic and thermal Enthalpies=           -2297.043915
 Sum of electronic and thermal Free Energies=        -2297.146594

                     E (Thermal)             CV                S
                      KCal/Mol        Cal/Mol-Kelvin    Cal/Mol-Kelvin
 Total                  281.784            119.864            216.106
 Electronic               0.000              0.000              0.000
 Translational            0.889              2.981             44.587
 Rotational               0.889              2.981             37.034
 Vibrational            280.007            113.902            134.486
 Vibration     1          0.593              1.986              7.370
 Vibration     2          0.593              1.986              7.075
 Vibration     3          0.593              1.986              6.551
 Vibration     4          0.593              1.985              6.184
 Vibration     5          0.594              1.982              5.409
 Vibration     6          0.595              1.977              4.776
 Vibration     7          0.596              1.976              4.623
 Vibration     8          0.596              1.975              4.593
 Vibration     9          0.599              1.966              4.030
 Vibration    10          0.600              1.963              3.896
 Vibration    11          0.602              1.956              3.663
 Vibration    12          0.603              1.953              3.565
 Vibration    13          0.604              1.950              3.472
 Vibration    14          0.605              1.947              3.406
 Vibration    15          0.605              1.946              3.368
 Vibration    16          0.608              1.935              3.148
 Vibration    17          0.609              1.933              3.116
 Vibration    18          0.620              1.896              2.599
 Vibration    19          0.621              1.895              2.586
 Vibration    20          0.624              1.885              2.489
 Vibration    21          0.628              1.871              2.359
 Vibration    22          0.631              1.862              2.293
 Vibration    23          0.633              1.855              2.237
 Vibration    24          0.638              1.839              2.130
 Vibration    25          0.645              1.818              1.999
 Vibration    26          0.655              1.785              1.828
 Vibration    27          0.658              1.778              1.796
 Vibration    28          0.662              1.764              1.737
 Vibration    29          0.669              1.744              1.654
 Vibration    30          0.672              1.734              1.615
 Vibration    31          0.683              1.702              1.506
 Vibration    32          0.686              1.694              1.479
 Vibration    33          0.688              1.686              1.454
 Vibration    34          0.690              1.681              1.438
 Vibration    35          0.704              1.642              1.327
 Vibration    36          0.710              1.625              1.283
 Vibration    37          0.723              1.586              1.191
 Vibration    38          0.729              1.570              1.154
 Vibration    39          0.733              1.558              1.130
 Vibration    40          0.744              1.530              1.071
 Vibration    41          0.778              1.440              0.912
 Vibration    42          0.784              1.423              0.885
 Vibration    43          0.800              1.384              0.828
 Vibration    44          0.812              1.353              0.785
 Vibration    45          0.826              1.320              0.742
 Vibration    46          0.831              1.308              0.727
 Vibration    47          0.850              1.261              0.671
 Vibration    48          0.857              1.247              0.654
 Vibration    49          0.878              1.198              0.602
 Vibration    50          0.887              1.180              0.583
 Vibration    51          0.896              1.159              0.563
 Vibration    52          0.927              1.094              0.503
 Vibration    53          0.929              1.090              0.499
 Vibration    54          0.939              1.070              0.481
 Vibration    55          0.970              1.009              0.431
 Vibration    56          0.978              0.993              0.419

                           ! Non-Optimized Parameters !
 Normal termination of Gaussian 16 at Sat Jun 15 11:40:02 2019.
