 Gaussian 16, Revision A.03,
 Gaussian 16:  AS64L-G16RevA.03 25-Dec-2016

 ----------------------------------------------------------------------
 #p opt=(calcfc,maxstep=1) freq=noraman b3lyp/6-31g(d) scrf=(solvent=te
 trahydrofuran,pcm) pop=none empiricaldispersion=gd3bj
 ----------------------------------------------------------------------

 -----
 title
 -----
 Symbolic Z-matrix:
 Charge =  0 Multiplicity = 1

 SCF Done:  E(RB3LYP) =  -2298.19479944     A.U. after   13 cycles
 SCF Done:  E(RB3LYP) =  -2298.19479921     A.U. after    6 cycles
 SCF Done:  E(RB3LYP) =  -2298.19479921     A.U. after    5 cycles
 Optimization completed on the basis of negligible forces.
    -- Stationary point found.
 Normal termination of Gaussian 16 at Sun May  5 11:29:00 2019.

 --------------------------------------------------------------------
 #P Geom=AllCheck Guess=TCheck SCRF=Check GenChk RB3LYP/6-31G(d) Freq
 --------------------------------------------------------------------

 Structure from the checkpoint file:  "/scratch/users/ekwan/clay_new-glu_gluC6-bisCF3-sm-b3lyp_d3bj-631gd-pcm_thf/Gau-9678.chk"
 -----
 title
 -----
 Charge =  0 Multiplicity = 1

                         Standard orientation:
 ---------------------------------------------------------------------
 Center     Atomic      Atomic             Coordinates (Angstroms)
 Number     Number       Type             X           Y           Z
 ---------------------------------------------------------------------
      1          6           0        3.393884    0.393989    0.581531
      2          6           0        3.307438   -0.509178   -0.651936
      3          6           0        1.845782   -0.839977   -0.996566
      4          6           0        1.020732    1.126601    0.087884
      5          6           0        2.437765    1.579098    0.446948
      6          1           0        1.755369   -1.358692   -1.950072
      7          1           0        3.703409    0.049320   -1.515155
      8          1           0        3.111051   -0.185868    1.470239
      9          1           0        0.605270    0.549796    0.924090
     10          1           0        2.802416    2.237966   -0.349606
     11          8           0        1.041302    0.287930   -1.089593
     12          8           0        1.382980   -1.739943    0.056646
     13          8           0        4.080788   -1.663120   -0.414745
     14          8           0        4.703603    0.918965    0.729431
     15          8           0        2.355125    2.281573    1.677516
     16          6           0        0.085060    2.301814   -0.178261
     17          1           0       -0.102636    2.790171    0.781111
     18          1           0       -0.867026    1.923987   -0.572141
     19          8           0        0.616004    3.300995   -1.029629
     20         16           0        0.094577   -2.691789   -0.261429
     21          8           0        0.082409   -3.659346    0.827202
     22          8           0        0.152766   -3.113630   -1.660456
     23          6           0       -1.283845   -1.575588   -0.059553
     24          6           0       -1.744538   -1.303801    1.225129
     25          6           0       -1.826838   -0.963873   -1.185969
     26          6           0       -2.783822   -0.385978    1.378888
     27          1           0       -1.303495   -1.795493    2.083889
     28          6           0       -2.862981   -0.050818   -1.009355
     29          1           0       -1.445152   -1.192249   -2.172418
     30          6           0       -3.343681    0.242599    0.267963
     31          1           0       -4.146020    0.959497    0.396358
     32          6           0        4.297629   -2.475233   -1.561894
     33          1           0        3.383793   -2.998700   -1.872608
     34          1           0        4.674699   -1.879636   -2.405174
     35          1           0        5.047796   -3.217070   -1.281186
     36          6           0        5.539376    0.187731    1.619029
     37          1           0        6.486188    0.731092    1.671858
     38          1           0        5.097748    0.140778    2.624607
     39          1           0        5.718565   -0.829755    1.257334
     40          6           0        3.037757    3.530571    1.677027
     41          1           0        2.883882    3.970762    2.665531
     42          1           0        4.110452    3.394035    1.500386
     43          1           0        2.624024    4.202771    0.913445
     44          6           0        0.570980    2.981224   -2.416481
     45          1           0        0.807330    3.901390   -2.956913
     46          1           0       -0.430964    2.637848   -2.706862
     47          1           0        1.297605    2.205801   -2.683226
     48          6           0       -3.338623   -0.113261    2.752927
     49          9           0       -2.393379   -0.252640    3.704730
     50          9           0       -4.340373   -0.967375    3.056811
     51          9           0       -3.838234    1.136223    2.846279
     52          6           0       -3.418558    0.694881   -2.193067
     53          9           0       -2.864873    1.930899   -2.291051
     54          9           0       -4.750348    0.873650   -2.088181
     55          9           0       -3.173734    0.056872   -3.352706
 ---------------------------------------------------------------------

 SCF Done:  E(RB3LYP) =  -2298.19479921     A.U. after    1 cycles

 Isotropic polarizability for W=    0.000000      274.56 Bohr**3.
 End of Minotr F.D. properties file   721 does not exist.

                      1                      2                      3
                      A                      A                      A
 Frequencies --     13.0864                16.2993                21.4676
 Red. masses --      9.7034                 6.4185                17.8256
 Frc consts  --      0.0010                 0.0010                 0.0048
 IR Inten    --      0.0278                 0.2754                 0.0166

                      4                      5                      6
                      A                      A                      A
 Frequencies --     23.9331                33.4393                41.4359
 Red. masses --     12.5242                 4.9560                 5.7928
 Frc consts  --      0.0042                 0.0033                 0.0059
 IR Inten    --      0.0241                 0.1904                 1.1193

                      7                      8                      9
                      A                      A                      A
 Frequencies --     53.1534                55.3122                67.6447
 Red. masses --      3.7606                 3.9778                 3.8352
 Frc consts  --      0.0063                 0.0072                 0.0103
 IR Inten    --      0.7780                 1.5155                 3.5756

                     10                     11                     12
                      A                      A                      A
 Frequencies --     72.1660                78.6096                88.4479
 Red. masses --      3.3482                 3.4942                 2.7234
 Frc consts  --      0.0103                 0.0127                 0.0126
 IR Inten    --      2.6601                 3.6772                 4.2840

                     13                     14                     15
                      A                      A                      A
 Frequencies --     98.2498               100.9419               105.3177
 Red. masses --      5.2845                10.3251                 5.5014
 Frc consts  --      0.0301                 0.0620                 0.0360
 IR Inten    --      3.4911                 4.0403                 2.7267

                     16                     17                     18
                      A                      A                      A
 Frequencies --    115.4711               129.3875               152.6293
 Red. masses --      7.1654                 2.3633                 7.4997
 Frc consts  --      0.0563                 0.0233                 0.1029
 IR Inten    --      0.5963                 3.8250                 0.4066

                     19                     20                     21
                      A                      A                      A
 Frequencies --    159.3525               168.5405               172.6137
 Red. masses --      1.6481                 3.6868                 2.4653
 Frc consts  --      0.0247                 0.0617                 0.0433
 IR Inten    --      1.0772                 0.8544                 1.0181

                     22                     23                     24
                      A                      A                      A
 Frequencies --    181.8405               193.8275               200.3894
 Red. masses --      1.7343                 1.8928                 2.6765
 Frc consts  --      0.0338                 0.0419                 0.0633
 IR Inten    --      0.4002                 2.2451                 9.6812

                     25                     26                     27
                      A                      A                      A
 Frequencies --    212.1834               228.8702               236.2456
 Red. masses --      1.5903                 1.9083                10.6485
 Frc consts  --      0.0422                 0.0589                 0.3502
 IR Inten    --      0.5489                 8.3724                 0.5723

                     28                     29                     30
                      A                      A                      A
 Frequencies --    246.3489               253.3343               264.7135
 Red. masses --      3.9738                 6.2261                 3.5370
 Frc consts  --      0.1421                 0.2354                 0.1460
 IR Inten    --      2.6591                 7.0744                11.6138

                     31                     32                     33
                      A                      A                      A
 Frequencies --    280.4481               288.8609               294.0141
 Red. masses --     11.1708                 5.4269                 8.8629
 Frc consts  --      0.5177                 0.2668                 0.4514
 IR Inten    --      4.2639                12.5323                 3.6927

                     34                     35                     36
                      A                      A                      A
 Frequencies --    295.1779               315.4514               326.1221
 Red. masses --      7.5777                 5.3996                 4.0511
 Frc consts  --      0.3890                 0.3166                 0.2539
 IR Inten    --      8.1308                 0.1953                 3.4939

                     37                     38                     39
                      A                      A                      A
 Frequencies --    342.7145               352.8756               360.5095
 Red. masses --      7.3163                 6.7456                 4.5876
 Frc consts  --      0.5063                 0.4949                 0.3513
 IR Inten    --      1.8332                 6.0994                 7.5269

                     40                     41                     42
                      A                      A                      A
 Frequencies --    367.4349               411.6476               423.0508
 Red. masses --      9.3739                10.2617                 8.8724
 Frc consts  --      0.7456                 1.0245                 0.9356
 IR Inten    --     17.3614                16.7846                 8.2465

                     43                     44                     45
                      A                      A                      A
 Frequencies --    433.4786               452.5427               464.8916
 Red. masses --      2.1629                 5.9783                 8.9993
 Frc consts  --      0.2395                 0.7214                 1.1459
 IR Inten    --      9.0061                 8.5375                21.3570

                     46                     47                     48
                      A                      A                      A
 Frequencies --    472.4396               489.5827               495.7079
 Red. masses --      4.0702                 8.0829                11.7369
 Frc consts  --      0.5352                 1.1415                 1.6992
 IR Inten    --      7.7432                13.2898                 2.1835

                     49                     50                     51
                      A                      A                      A
 Frequencies --    520.9912               527.9978               540.5234
 Red. masses --      6.3935                 6.5808                 4.9897
 Frc consts  --      1.0225                 1.0809                 0.8589
 IR Inten    --     53.5520                11.4527                15.2634

                     52                     53                     54
                      A                      A                      A
 Frequencies --    564.5860               569.1319               578.6829
 Red. masses --     11.4141                 4.2385                 9.5301
 Frc consts  --      2.1436                 0.8089                 1.8803
 IR Inten    --     34.5367                43.1312               206.4094

                     55                     56                     57
                      A                      A                      A
 Frequencies --    602.6940               611.3013               644.1724
 Red. masses --      6.6795                 8.0902                 5.6435
 Frc consts  --      1.4295                 1.7812                 1.3798
 IR Inten    --     29.9154                 3.0901                12.3985

                     58                     59                     60
                      A                      A                      A
 Frequencies --    673.5504               677.6163               681.1435
 Red. masses --      7.8463                12.9557                 6.5801
 Frc consts  --      2.0973                 3.5049                 1.7987
 IR Inten    --      1.8273                55.3067                52.1777

                     61                     62                     63
                      A                      A                      A
 Frequencies --    708.6678               714.7123               736.5992
 Red. masses --      2.6593                10.9010                 5.0017
 Frc consts  --      0.7869                 3.2808                 1.5989
 IR Inten    --     22.8357                 0.5463                77.3258

                     64                     65                     66
                      A                      A                      A
 Frequencies --    801.7164               832.2249               843.0251
 Red. masses --      8.8357                 3.8624                 9.4668
 Frc consts  --      3.3461                 1.5761                 3.9640
 IR Inten    --    467.3592                79.4928                87.4431

                     67                     68                     69
                      A                      A                      A
 Frequencies --    859.4792               880.0423               916.7512
 Red. masses --     11.9677                 4.2786                 1.5757
 Frc consts  --      5.2087                 1.9524                 0.7802
 IR Inten    --     30.6133                51.9378                64.5569

                     70                     71                     72
                      A                      A                      A
 Frequencies --    924.7972               947.6187               953.2981
 Red. masses --      2.9300                 1.3834                 1.3623
 Frc consts  --      1.4764                 0.7319                 0.7294
 IR Inten    --     26.5167                 1.9581                 4.5755

                     73                     74                     75
                      A                      A                      A
 Frequencies --    966.4326               975.3856              1009.6787
 Red. masses --      4.9207                 4.2316                 4.2696
 Frc consts  --      2.7078                 2.3720                 2.5645
 IR Inten    --     14.1827                31.9516                42.5755

                     76                     77                     78
                      A                      A                      A
 Frequencies --   1019.8309              1021.7988              1043.6866
 Red. masses --      4.9884                 5.2534                 3.5836
 Frc consts  --      3.0568                 3.2316                 2.2999
 IR Inten    --     10.0165                10.2374               142.3646

                     79                     80                     81
                      A                      A                      A
 Frequencies --   1084.8533              1113.8738              1119.5919
 Red. masses --      3.0672                11.7541                 3.1649
 Frc consts  --      2.1268                 8.5924                 2.3374
 IR Inten    --     17.3371                58.0353               154.3225

                     82                     83                     84
                      A                      A                      A
 Frequencies --   1125.3976              1129.6325              1133.9365
 Red. masses --      2.8687                 3.2398                 3.7350
 Frc consts  --      2.1406                 2.4358                 2.8295
 IR Inten    --     95.9359                53.1779               296.2557

                     85                     86                     87
                      A                      A                      A
 Frequencies --   1136.3722              1148.6252              1152.6093
 Red. masses --      2.1436                 3.9261                 4.2597
 Frc consts  --      1.6309                 3.0519                 3.3342
 IR Inten    --     34.1826                34.7922               387.9557

                     88                     89                     90
                      A                      A                      A
 Frequencies --   1157.3203              1159.4264              1173.8669
 Red. masses --      3.5006                 6.8277                 3.6154
 Frc consts  --      2.7624                 5.4076                 2.9352
 IR Inten    --    356.5369               386.3228               119.5136

                     91                     92                     93
                      A                      A                      A
 Frequencies --   1174.8802              1184.8303              1185.2847
 Red. masses --      9.5473                 3.4245                 1.8743
 Frc consts  --      7.7646                 2.8324                 1.5515
 IR Inten    --    287.3287               141.7785                43.8452

                     94                     95                     96
                      A                      A                      A
 Frequencies --   1189.5220              1191.0330              1192.4769
 Red. masses --      1.2889                 1.5755                 1.5881
 Frc consts  --      1.0745                 1.3168                 1.3306
 IR Inten    --      4.9875                47.5508                 8.8212

                     97                     98                     99
                      A                      A                      A
 Frequencies --   1196.3716              1204.4691              1211.5009
 Red. masses --      1.3122                 6.7465                 5.6936
 Frc consts  --      1.1065                 5.7666                 4.9236
 IR Inten    --     16.1955               161.3319               230.1687

                    100                    101                    102
                      A                      A                      A
 Frequencies --   1218.1826              1226.7248              1234.4844
 Red. masses --      1.3815                 1.4827                 1.6724
 Frc consts  --      1.2079                 1.3146                 1.5016
 IR Inten    --     47.4268                29.5565                15.9162

                    103                    104                    105
                      A                      A                      A
 Frequencies --   1241.1290              1271.9078              1288.2923
 Red. masses --      1.6190                 1.7239                 3.3655
 Frc consts  --      1.4694                 1.6431                 3.2910
 IR Inten    --     20.1714                 6.2348               781.7038

                    106                    107                    108
                      A                      A                      A
 Frequencies --   1310.5361              1314.2360              1338.4557
 Red. masses --      1.4307                 1.4169                14.1627
 Frc consts  --      1.4477                 1.4419                14.9487
 IR Inten    --      2.5471                15.0588               259.3752

                    109                    110                    111
                      A                      A                      A
 Frequencies --   1343.4023              1348.9412              1375.1449
 Red. masses --      1.3191                 1.2639                 1.6143
 Frc consts  --      1.4026                 1.3550                 1.7986
 IR Inten    --      4.0291                 9.5528                55.6356

                    112                    113                    114
                      A                      A                      A
 Frequencies --   1376.8679              1379.3469              1382.1970
 Red. masses --      2.6098                 1.4079                 3.3988
 Frc consts  --      2.9151                 1.5782                 3.8258
 IR Inten    --    100.9097                25.7510                28.2444

                    115                    116                    117
                      A                      A                      A
 Frequencies --   1396.1017              1405.0835              1419.9361
 Red. masses --      1.2665                 1.4507                 1.2943
 Frc consts  --      1.4544                 1.6875                 1.5376
 IR Inten    --      2.2460                11.4995                 5.2577

                    118                    119                    120
                      A                      A                      A
 Frequencies --   1431.1854              1439.0644              1449.5898
 Red. masses --      1.4000                 1.2967                 1.3290
 Frc consts  --      1.6896                 1.5821                 1.6453
 IR Inten    --     29.0277                12.6602                10.8585

                    121                    122                    123
                      A                      A                      A
 Frequencies --   1490.0756              1491.6848              1497.2851
 Red. masses --      3.2525                 1.1449                 1.1520
 Frc consts  --      4.2549                 1.5009                 1.5217
 IR Inten    --      6.5833                 2.1480                 2.9502

                    124                    125                    126
                      A                      A                      A
 Frequencies --   1497.6409              1499.9354              1502.7429
 Red. masses --      1.1558                 1.1437                 4.0644
 Frc consts  --      1.5274                 1.5160                 5.4077
 IR Inten    --      1.0292                 3.9643                 1.3831

                    127                    128                    129
                      A                      A                      A
 Frequencies --   1507.7697              1510.9184              1512.0716
 Red. masses --      1.0514                 1.0623                 1.0644
 Frc consts  --      1.4083                 1.4289                 1.4339
 IR Inten    --      1.7086                 6.6873                 5.5410

                    130                    131                    132
                      A                      A                      A
 Frequencies --   1516.4398              1520.5628              1534.1188
 Red. masses --      1.1114                 1.0878                 1.0502
 Frc consts  --      1.5058                 1.4818                 1.4563
 IR Inten    --      0.9176                 5.1749                11.4400

                    133                    134                    135
                      A                      A                      A
 Frequencies --   1537.3229              1538.0353              1540.1035
 Red. masses --      1.0500                 1.0516                 1.0608
 Frc consts  --      1.4620                 1.4657                 1.4825
 IR Inten    --      4.5329                10.0605                 8.4272

                    136                    137                    138
                      A                      A                      A
 Frequencies --   1654.0970              1674.6112              3005.2242
 Red. masses --      6.2161                 5.8981                 1.0809
 Frc consts  --     10.0205                 9.7452                 5.7519
 IR Inten    --     15.6635                19.5915                32.2244

                    139                    140                    141
                      A                      A                      A
 Frequencies --   3019.9268              3024.1986              3030.0991
 Red. masses --      1.0372                 1.0413                 1.0349
 Frc consts  --      5.5735                 5.6109                 5.5982
 IR Inten    --     78.0290                63.4963                67.0643

                    142                    143                    144
                      A                      A                      A
 Frequencies --   3036.7283              3047.1536              3053.1736
 Red. masses --      1.0328                 1.0833                 1.0788
 Frc consts  --      5.6113                 5.9266                 5.9251
 IR Inten    --     52.7963                22.7936                 6.2759

                    145                    146                    147
                      A                      A                      A
 Frequencies --   3066.0576              3074.4664              3076.5101
 Red. masses --      1.0670                 1.0845                 1.1056
 Frc consts  --      5.9100                 6.0397                 6.1652
 IR Inten    --     41.0874                74.7589                57.9138

                    148                    149                    150
                      A                      A                      A
 Frequencies --   3099.9605              3101.3510              3103.4858
 Red. masses --      1.1025                 1.1035                 1.0932
 Frc consts  --      6.2422                 6.2538                 6.2036
 IR Inten    --     48.4217                49.9778                51.9146

                    151                    152                    153
                      A                      A                      A
 Frequencies --   3134.3524              3140.9509              3142.7977
 Red. masses --      1.1008                 1.1039                 1.1036
 Frc consts  --      6.3715                 6.4168                 6.4222
 IR Inten    --     20.4861                49.1160                41.8876

                    154                    155                    156
                      A                      A                      A
 Frequencies --   3145.1914              3152.4426              3160.7442
 Red. masses --      1.1053                 1.0988                 1.0885
 Frc consts  --      6.4422                 6.4338                 6.4068
 IR Inten    --     37.9674                36.4001                 9.4548

                    157                    158                    159
                      A                      A                      A
 Frequencies --   3243.8907              3244.1707              3259.1174
 Red. masses --      1.0920                 1.0918                 1.0919
 Frc consts  --      6.7703                 6.7700                 6.8335
 IR Inten    --      0.5252                 5.6742                 6.2507

 - Thermochemistry -
 -------------------
 Temperature   298.150 Kelvin.  Pressure   1.00000 Atm.
 Atom     1 has atomic number  6 and mass  12.00000

 Molecular mass:   512.09396 amu.
 Principal axes and moments of inertia in atomic units:
                           1         2         3
     Eigenvalues --  ******************************
           X            0.99995   0.00648   0.00783
           Y           -0.00763   0.98751   0.15739
           Z           -0.00671  -0.15744   0.98751
 This molecule is an asymmetric top.
 Rotational symmetry number  1.
 Warning -- assumption of classical behavior for rotation
           may cause significant error
 Rotational temperatures (Kelvin)      0.00722     0.00408     0.00400
 Rotational constants (GHZ):           0.15045     0.08503     0.08331
 Zero-point vibrational energy    1082288.1 (Joules/Mol)
                                  258.67305 (Kcal/Mol)
 Warning -- explicit consideration of  56 degrees of freedom as
           vibrations may cause significant error
 Vibrational temperatures:     18.83    23.45    30.89    34.43    48.11
          (Kelvin)             59.62    76.48    79.58    97.33   103.83
                              113.10   127.26   141.36   145.23   151.53
                              166.14   186.16   219.60   229.27   242.49
                              248.35   261.63   278.87   288.32   305.28
                              329.29   339.90   354.44   364.49   380.86
                              403.50   415.61   423.02   424.70   453.86
                              469.22   493.09   507.71   518.69   528.66
                              592.27   608.68   623.68   651.11   668.88
                              679.74   704.40   713.21   749.59   759.67
                              777.69   812.31   818.85   832.60   867.14
                              879.53   926.82   969.09   974.94   980.01
                             1019.61  1028.31  1059.80  1153.49  1197.39
                             1212.93  1236.60  1266.18  1319.00  1330.58
                             1363.41  1371.58  1390.48  1403.36  1452.70
                             1467.31  1470.14  1501.63  1560.86  1602.62
                             1610.84  1619.20  1625.29  1631.48  1634.99
                             1652.62  1658.35  1665.13  1668.16  1688.93
                             1690.39  1704.71  1705.36  1711.46  1713.63
                             1715.71  1721.31  1732.96  1743.08  1752.69
                             1764.98  1776.15  1785.71  1829.99  1853.57
                             1885.57  1890.89  1925.74  1932.86  1940.83
                             1978.53  1981.01  1984.57  1988.67  2008.68
                             2021.60  2042.97  2059.16  2070.49  2085.64
                             2143.89  2146.20  2154.26  2154.77  2158.07
                             2162.11  2169.34  2173.87  2175.53  2181.82
                             2187.75  2207.25  2211.86  2212.89  2215.87
                             2379.88  2409.39  4323.85  4345.00  4351.15
                             4359.64  4369.17  4384.17  4392.84  4411.37
                             4423.47  4426.41  4460.15  4462.15  4465.22
                             4509.63  4519.13  4521.78  4525.23  4535.66
                             4547.61  4667.24  4667.64  4689.14

 Zero-point correction=                           0.412222 (Hartree/Particle)
 Thermal correction to Energy=                    0.445681
 Thermal correction to Enthalpy=                  0.446625
 Thermal correction to Gibbs Free Energy=         0.342962
 Sum of electronic and zero-point Energies=          -2297.782577
 Sum of electronic and thermal Energies=             -2297.749119
 Sum of electronic and thermal Enthalpies=           -2297.748174
 Sum of electronic and thermal Free Energies=        -2297.851837

                     E (Thermal)             CV                S
                      KCal/Mol        Cal/Mol-Kelvin    Cal/Mol-Kelvin
 Total                  279.669            120.828            218.177
 Electronic               0.000              0.000              0.000
 Translational            0.889              2.981             44.587
 Rotational               0.889              2.981             36.954
 Vibrational            277.891            114.866            136.636
 Vibration     1          0.593              1.987              7.477
 Vibration     2          0.593              1.986              7.041
 Vibration     3          0.593              1.985              6.494
 Vibration     4          0.593              1.985              6.278
 Vibration     5          0.594              1.983              5.614
 Vibration     6          0.594              1.981              5.189
 Vibration     7          0.596              1.976              4.696
 Vibration     8          0.596              1.975              4.618
 Vibration     9          0.598              1.970              4.221
 Vibration    10          0.598              1.967              4.093
 Vibration    11          0.600              1.964              3.925
 Vibration    12          0.601              1.957              3.694
 Vibration    13          0.604              1.950              3.489
 Vibration    14          0.604              1.948              3.436
 Vibration    15          0.605              1.945              3.353
 Vibration    16          0.608              1.937              3.175
 Vibration    17          0.612              1.924              2.955
 Vibration    18          0.619              1.900              2.639
 Vibration    19          0.621              1.892              2.557
 Vibration    20          0.625              1.881              2.452
 Vibration    21          0.626              1.876              2.407
 Vibration    22          0.630              1.864              2.309
 Vibration    23          0.635              1.848              2.191
 Vibration    24          0.638              1.839              2.130
 Vibration    25          0.643              1.822              2.025
 Vibration    26          0.652              1.797              1.888
 Vibration    27          0.655              1.785              1.831
 Vibration    28          0.661              1.769              1.757
 Vibration    29          0.665              1.757              1.707
 Vibration    30          0.671              1.738              1.630
 Vibration    31          0.680              1.710              1.531
 Vibration    32          0.685              1.694              1.481
 Vibration    33          0.689              1.685              1.451
 Vibration    34          0.689              1.683              1.444
 Vibration    35          0.703              1.644              1.334
 Vibration    36          0.710              1.623              1.279
 Vibration    37          0.722              1.590              1.199
 Vibration    38          0.729              1.569              1.153
 Vibration    39          0.735              1.554              1.120
 Vibration    40          0.740              1.539              1.090
 Vibration    41          0.776              1.445              0.921
 Vibration    42          0.785              1.420              0.882
 Vibration    43          0.794              1.397              0.847
 Vibration    44          0.811              1.355              0.788
 Vibration    45          0.822              1.328              0.752
 Vibration    46          0.829              1.311              0.731
 Vibration    47          0.845              1.273              0.685
 Vibration    48          0.851              1.260              0.669
 Vibration    49          0.876              1.204              0.608
 Vibration    50          0.883              1.188              0.592
 Vibration    51          0.896              1.160              0.564
 Vibration    52          0.920              1.108              0.515
 Vibration    53          0.925              1.098              0.506
 Vibration    54          0.935              1.077              0.488
 Vibration    55          0.961              1.026              0.445
 Vibration    56          0.970              1.008              0.431

 Optimization completed on the basis of negligible forces.
    -- Stationary point found.
 Normal termination of Gaussian 16 at Sun May  5 12:48:53 2019.
